<VTKFile type="UnstructuredGrid" version="0.1" byte_order="BigEndian">
  <UnstructuredGrid>
    <Piece NumberOfPoints="1431" NumberOfCells="2697">
      <Points>
        <DataArray type="Float32" NumberOfComponents="3" Format="ascii">
          5.334000e-01 0.000000e+00 0.000000e+00
          4.267200e+00 3.733800e+00 0.000000e+00
          5.334000e-01 3.733800e+00 0.000000e+00
          -3.200400e+00 0.000000e+00 0.000000e+00
          5.334000e-01 -3.733800e+00 0.000000e+00
          4.267200e+00 -3.733800e+00 0.000000e+00
          5.228714e-01 -1.510975e-03 0.000000e+00
          5.123323e-01 -2.985707e-03 0.000000e+00
          5.017883e-01 -4.424789e-03 0.000000e+00
          4.912397e-01 -5.829447e-03 0.000000e+00
          4.806867e-01 -7.200780e-03 0.000000e+00
          4.701295e-01 -8.539758e-03 0.000000e+00
          4.595684e-01 -9.847207e-03 0.000000e+00
          4.490035e-01 -1.112383e-02 0.000000e+00
          4.384349e-01 -1.237020e-02 0.000000e+00
          4.278630e-01 -1.358671e-02 0.000000e+00
          4.172876e-01 -1.477363e-02 0.000000e+00
          4.067090e-01 -1.593111e-02 0.000000e+00
          3.961272e-01 -1.705909e-02 0.000000e+00
          3.855423e-01 -1.815740e-02 0.000000e+00
          3.749543e-01 -1.922569e-02 0.000000e+00
          3.643632e-01 -2.026344e-02 0.000000e+00
          3.537692e-01 -2.126997e-02 0.000000e+00
          3.431722e-01 -2.224443e-02 0.000000e+00
          3.325722e-01 -2.318575e-02 0.000000e+00
          3.219691e-01 -2.409272e-02 0.000000e+00
          3.113631e-01 -2.496390e-02 0.000000e+00
          3.007541e-01 -2.579765e-02 0.000000e+00
          2.901420e-01 -2.659211e-02 0.000000e+00
          2.795269e-01 -2.734517e-02 0.000000e+00
          2.689089e-01 -2.805452e-02 0.000000e+00
          2.582878e-01 -2.871753e-02 0.000000e+00
          2.476638e-01 -2.933132e-02 0.000000e+00
          2.370368e-01 -2.989269e-02 0.000000e+00
          2.264071e-01 -3.039811e-02 0.000000e+00
          2.157747e-01 -3.084366e-02 0.000000e+00
          2.051398e-01 -3.122503e-02 0.000000e+00
          1.945027e-01 -3.153742e-02 0.000000e+00
          1.838636e-01 -3.177553e-02 0.000000e+00
          1.732231e-01 -3.193342e-02 0.000000e+00
          1.625816e-01 -3.200445e-02 0.000000e+00
          1.519399e-01 -3.198116e-02 0.000000e+00
          1.412989e-01 -3.185504e-02 0.000000e+00
          1.306599e-01 -3.161639e-02 0.000000e+00
          1.200244e-01 -3.125392e-02 0.000000e+00
          1.093945e-01 -3.075441e-02 0.000000e+00
          9.877283e-02 -3.010202e-02 0.000000e+00
          8.816318e-02 -2.927745e-02 0.000000e+00
          7.757071e-02 -2.825657e-02 0.000000e+00
          6.705421e-02 -2.701490e-02 0.000000e+00
          5.862861e-02 -2.582654e-02 0.000000e+00
          5.263795e-02 -2.485856e-02 0.000000e+00
          4.740140e-02 -2.391548e-02 0.000000e+00
          4.218387e-02 -2.287234e-02 0.000000e+00
          3.699060e-02 -2.171459e-02 0.000000e+00
          3.182898e-02 -2.042326e-02 0.000000e+00
          2.670989e-02 -1.897277e-02 0.000000e+00
          2.165028e-02 -1.732728e-02 0.000000e+00
          1.667839e-02 -1.543401e-02 0.000000e+00
          1.184603e-02 -1.321029e-02 0.000000e+00
          7.261188e-03 -1.051686e-02 0.000000e+00
          3.192043e-03 -7.105264e-03 0.000000e+00
          4.144512e-04 -2.617250e-03 0.000000e+00
          4.143411e-04 2.616907e-03 0.000000e+00
          3.191798e-03 7.105000e-03 0.000000e+00
          7.260890e-03 1.051666e-02 0.000000e+00
          1.184571e-02 1.321013e-02 0.000000e+00
          1.667806e-02 1.543387e-02 0.000000e+00
          2.164994e-02 1.732716e-02 0.000000e+00
          2.670955e-02 1.897266e-02 0.000000e+00
          3.182863e-02 2.042316e-02 0.000000e+00
          3.699024e-02 2.171451e-02 0.000000e+00
          4.218351e-02 2.287227e-02 0.000000e+00
          4.740104e-02 2.391541e-02 0.000000e+00
          5.263760e-02 2.485850e-02 0.000000e+00
          5.862818e-02 2.582647e-02 0.000000e+00
          6.705398e-02 2.701487e-02 0.000000e+00
          7.757072e-02 2.825657e-02 0.000000e+00
          8.816318e-02 2.927745e-02 0.000000e+00
          9.877283e-02 3.010202e-02 0.000000e+00
          1.093945e-01 3.075441e-02 0.000000e+00
          1.200244e-01 3.125392e-02 0.000000e+00
          1.306599e-01 3.161639e-02 0.000000e+00
          1.412989e-01 3.185504e-02 0.000000e+00
          1.519399e-01 3.198116e-02 0.000000e+00
          1.625816e-01 3.200445e-02 0.000000e+00
          1.732231e-01 3.193342e-02 0.000000e+00
          1.838636e-01 3.177553e-02 0.000000e+00
          1.945027e-01 3.153742e-02 0.000000e+00
          2.051398e-01 3.122503e-02 0.000000e+00
          2.157747e-01 3.084366e-02 0.000000e+00
          2.264071e-01 3.039810e-02 0.000000e+00
          2.370368e-01 2.989269e-02 0.000000e+00
          2.476638e-01 2.933132e-02 0.000000e+00
          2.582878e-01 2.871753e-02 0.000000e+00
          2.689089e-01 2.805452e-02 0.000000e+00
          2.795269e-01 2.734517e-02 0.000000e+00
          2.901420e-01 2.659211e-02 0.000000e+00
          3.007541e-01 2.579765e-02 0.000000e+00
          3.113631e-01 2.496390e-02 0.000000e+00
          3.219691e-01 2.409272e-02 0.000000e+00
          3.325722e-01 2.318575e-02 0.000000e+00
          3.431722e-01 2.224443e-02 0.000000e+00
          3.537692e-01 2.126997e-02 0.000000e+00
          3.643632e-01 2.026344e-02 0.000000e+00
          3.749543e-01 1.922569e-02 0.000000e+00
          3.855423e-01 1.815740e-02 0.000000e+00
          3.961272e-01 1.705909e-02 0.000000e+00
          4.067090e-01 1.593111e-02 0.000000e+00
          4.172876e-01 1.477363e-02 0.000000e+00
          4.278630e-01 1.358671e-02 0.000000e+00
          4.384349e-01 1.237020e-02 0.000000e+00
          4.490035e-01 1.112383e-02 0.000000e+00
          4.595684e-01 9.847207e-03 0.000000e+00
          4.701295e-01 8.539758e-03 0.000000e+00
          4.806867e-01 7.200780e-03 0.000000e+00
          4.912397e-01 5.829447e-03 0.000000e+00
          5.017883e-01 4.424788e-03 0.000000e+00
          5.123323e-01 2.985707e-03 0.000000e+00
          5.228714e-01 1.510975e-03 0.000000e+00
          -3.162395e+00 -5.313751e-01 0.000000e+00
          -3.049155e+00 -1.051933e+00 0.000000e+00
          -2.862984e+00 -1.551077e+00 0.000000e+00
          -2.607672e+00 -2.018645e+00 0.000000e+00
          -2.288418e+00 -2.445119e+00 0.000000e+00
          -1.911719e+00 -2.821818e+00 0.000000e+00
          -1.485245e+00 -3.141072e+00 0.000000e+00
          -1.017677e+00 -3.396384e+00 0.000000e+00
          -5.185330e-01 -3.582555e+00 0.000000e+00
          2.024859e-03 -3.695795e+00 0.000000e+00
          -3.162395e+00 5.313751e-01 0.000000e+00
          -3.049155e+00 1.051933e+00 0.000000e+00
          -2.862984e+00 1.551077e+00 0.000000e+00
          -2.607672e+00 2.018645e+00 0.000000e+00
          -2.288418e+00 2.445119e+00 0.000000e+00
          -1.911719e+00 2.821818e+00 0.000000e+00
          -1.485245e+00 3.141072e+00 0.000000e+00
          -1.017677e+00 3.396384e+00 0.000000e+00
          -5.185330e-01 3.582555e+00 0.000000e+00
          2.024859e-03 3.695795e+00 0.000000e+00
          4.267200e+00 -3.200400e+00 0.000000e+00
          4.267200e+00 -2.667000e+00 0.000000e+00
          4.267200e+00 -2.133600e+00 0.000000e+00
          4.267200e+00 -1.600200e+00 0.000000e+00
          4.267200e+00 -1.066800e+00 0.000000e+00
          4.267200e+00 -5.334000e-01 0.000000e+00
          4.267200e+00 1.041376e-08 0.000000e+00
          4.267200e+00 5.334000e-01 0.000000e+00
          4.267200e+00 1.066800e+00 0.000000e+00
          4.267200e+00 1.600200e+00 0.000000e+00
          4.267200e+00 2.133600e+00 0.000000e+00
          4.267200e+00 2.667000e+00 0.000000e+00
          4.267200e+00 3.200400e+00 0.000000e+00
          3.733800e+00 3.733800e+00 0.000000e+00
          3.200400e+00 3.733800e+00 0.000000e+00
          2.667000e+00 3.733800e+00 0.000000e+00
          2.133600e+00 3.733800e+00 0.000000e+00
          1.600200e+00 3.733800e+00 0.000000e+00
          1.066800e+00 3.733800e+00 0.000000e+00
          3.733800e+00 -3.733800e+00 0.000000e+00
          3.200400e+00 -3.733800e+00 0.000000e+00
          2.667000e+00 -3.733800e+00 0.000000e+00
          2.133600e+00 -3.733800e+00 0.000000e+00
          1.600200e+00 -3.733800e+00 0.000000e+00
          1.066800e+00 -3.733800e+00 0.000000e+00
          4.342290e-01 2.236181e-02 0.000000e+00
          2.963457e-01 3.370866e-02 0.000000e+00
          4.342288e-01 -2.235934e-02 0.000000e+00
          2.972354e-01 -3.654075e-02 0.000000e+00
          3.827396e+00 1.350712e+00 0.000000e+00
          1.900780e+00 -3.253153e+00 0.000000e+00
          1.378485e+00 3.318460e+00 0.000000e+00
          3.818950e+00 -7.767073e-01 0.000000e+00
          3.079105e-01 -3.302894e+00 0.000000e+00
          -1.539230e-01 3.219252e+00 0.000000e+00
          -1.403615e+00 -2.617609e+00 0.000000e+00
          -1.817697e+00 2.297794e+00 0.000000e+00
          -2.558430e+00 -1.153966e+00 0.000000e+00
          -2.687114e+00 6.811607e-01 0.000000e+00
          3.785792e+00 2.743300e-01 0.000000e+00
          3.820488e+00 -1.848156e+00 0.000000e+00
          2.400300e+00 3.271862e+00 0.000000e+00
          3.813712e+00 2.399226e+00 0.000000e+00
          2.933987e+00 -3.284586e+00 0.000000e+00
          -2.290287e+00 1.613593e+00 0.000000e+00
          -2.770458e+00 -1.779223e-01 0.000000e+00
          -2.146502e+00 -1.973320e+00 0.000000e+00
          -1.042533e+00 2.901788e+00 0.000000e+00
          -6.193488e-01 -3.019405e+00 0.000000e+00
          3.747298e+00 -2.934282e+00 0.000000e+00
          3.440589e+00 3.204045e+00 0.000000e+00
          3.827204e+00 -2.755109e-01 0.000000e+00
          3.425019e+00 -5.393100e-01 0.000000e+00
          3.395320e+00 -9.620901e-01 0.000000e+00
          3.049637e+00 -7.592207e-01 0.000000e+00
          3.021259e+00 -1.139809e+00 0.000000e+00
[...]
      <CellData Scalars="scalars">
        <DataArray type="Float32" Name="rho" Format="ascii">
          1.3065832134827204 1.3191789946851178 1.313607692611023 1.3154115152659573 1.3096352066768702 1.3197291606986674 1.3132973380015465 1.3171082497987903 1.284377287087408 1.332272621282443 1.341812497615946 1.3159057720466236 1.3183409103071653 1.3257774791579804 1.321050157333201 1.2984617758217212 1.305436551932404 1.3160082897143142 1.3213654035207392 1.3059985464779553 1.3174023357805085 1.3052341184613743 1.3227326714691412 1.3153561921294399 1.317956496306877 1.3265599370055936 1.3151098579261051 1.316917699111458 1.3203696522046084 1.3158654810527257 1.3167851490896771 1.3084491581228181 1.3183474626106235 1.2825118069600736 1.3194838994961997 1.3158361936456762 1.3054249466812275 1.3072120289673412 1.2970152130251589 1.283980675542783 1.3329446780289336 1.3149793657174589 1.2884791216552145 1.299286168799992 1.3180748877732444 1.30082650730705 1.2929280294828251 1.3164495729456729 1.3174634401671648 1.30795880250431 1.3154664017768936 1.3212322054144046 1.3034796760232346 1.3205885985973453 1.316570335169695 1.3158735894720446 1.3162310523259153 1.3273753889130657 1.3038473548011127 1.3138144196795656 1.3158709037101644 1.3175000765795208 1.307343345002225 1.3477145084074238 1.3164839360839236 1.3043873867764642 1.3147302055094396 1.306450427873583 1.306101445699228 1.3163151996424327 1.317735499038473 1.3044353429026814 1.315858700789444 1.3170631292672241 1.3161376967715743 1.315873133176143 1.3155805945930525 1.3183774859571125 1.3161210077686127 1.315879828018429 1.3158339076381549 1.3125719959981983 1.3171908614789498 1.3106435691432756 1.3142617308349172 1.3014012542690219 1.315394321119843 1.3195838261573292 1.3166530649307306 1.3070969322890411 1.307166924061604 1.3131183919839031 1.2778196706891458 1.3157703482569305 1.3163368891582936 1.2844502784340865 1.3132770478638447 1.31830114820278 1.3108468412408136 1.3623551468118702 1.3136589929841649 1.346880562024599 1.310331186017854 1.3083477265626233 1.3114583523854968 1.3165729434224953 1.2915116834806786 1.3161184747687558 1.3158611769636983 1.321732269672495 1.3101450596598105 1.2982659068637918 1.3089268140109767 1.3158735878412524 1.311908759284409 1.3064229508180873 1.3146015330136345 1.2860560152876472 1.3082717557522912 1.3191768414497271 1.2885759781403472 1.3115556290556292 1.279956450181843 1.3158681599711275 1.2977419970230153 1.3067912369097339 1.3196425279745818 1.2766823953122288 1.3158714881284865 1.2852273042858955 1.3226979905071374 1.318837565811445 1.3131082701483694 1.317264320503275 1.3136782108924345 1.292602711133957 1.3073772604261469 1.3153397248724337 1.3158749782228787 1.304414303561574 1.3156106879075997 1.313794928125097 1.3045059183875556 1.2964531425759998 1.3134374111141647 1.3094098607645905 1.3138307959341615 1.3145709485546837 1.3107381782949266 1.3158234933356052 1.3166038912512872 1.3152194974086786 1.3141898018780307 1.3015808284433452 1.3249500655453816 1.3280302261400436 1.2848777598446062 1.3171130329153382 1.3132575477338957 1.2913187654061424 1.3170618391392226 1.3395237051723818 1.3209441485312314 1.3076302606402073 1.291381772371913 1.3016545689052634 1.3078632328321929 1.316776849527427 1.3079982110680037 1.3219240276149413 1.3096621886550484 1.3113647224904967 1.3158693533830634 1.3118058069883494 1.3193995915259649 1.310972950683476 1.3075982055059197 1.3140022976249288 1.2790790181889482 1.3487539438598923 1.2766390461326191 1.3116893006365211 1.302540457447116 1.3120168176067826 1.3134869557916702 1.3158734532682177 1.3147891397454108 1.3116191862146327 1.3096354080324146 1.3182517302832022 1.3007012439146397 1.3105324796392464 1.3144759416807517 1.3080912065681551 1.3051441298222766 1.3130826283159378 1.315875141635358 1.3012396692402055 1.3202290771235552 1.3170579746527133 1.3149159318597603 1.3115661556802554 1.3171344803489042 1.311320416989234 1.3037837765693745 1.3177697669642257 1.2894354799704428 1.3159143128966568 1.315812843439828 1.315927773261784 1.2931633471056765 1.3159563380473693 1.3162460364683735 1.3208368424116397 1.2741695471359655 1.3040427618643415 1.300614133572621 1.2715718221631587 1.3119503947833282 1.2888046069134353 1.2967494289794619 1.316334982471813 1.29590927736379 1.3158555651828536 1.309803735855632 1.352493703049167 1.3158732019946457 1.3211932454532611 1.3106582271404688 1.3174000160565864 1.317805637655035 1.3048466816645465 1.3190910092978745 1.292391208749665 1.3140334953845798 1.306100176159731 1.306312229974757 1.3158398225904315 1.3103397687904343 1.2804907375919132 1.3353658413672371 1.307829783935911 1.3114426138798907 1.3111264031030332 1.3158726411093993 1.303584211136334 1.2987579708725356 1.3189282549632635 1.3097150318117823 1.3153907462648762 1.3113951978647806 1.2991183957340735 1.3058391539135847 1.3158733153181166 1.3072248381530736 1.315598034881863 1.2734055931388093 1.312374119559372 1.28274276748559 1.297390375645306 1.316121040273001 1.311833661301313 1.316221900617467 1.3081573253204941 1.3172522289914503 1.2925691755922268 1.3158732716132209 1.3432304939920114 1.294674131095982 1.3077814218078125 1.2903199007330202 1.3087716538903207 1.3171006354843708 1.3127612356574256 1.281099715979137 1.3114075143124888 1.3064369658107142 1.3156644711055372 1.3070666080652078 1.3170620254074614 1.3093111181120125 1.2862756435404779 1.2840664522464247 1.3187532872910703 1.3238521678045814 1.3339653009823882 1.3058910210734984 1.3158729150730637 1.3132770362181045 1.3092585878381924 1.3131834097956263 1.3090874694703638 1.3042133215406362 1.3136085716357708 1.3072794135363524 1.295225521445326 1.3023060689971573 1.315865969297376 1.3177401918911233 1.3023134695455953 1.3077526158202737 1.3184018379860714 1.289874360783754 1.315337205623052 1.2880832124206045 1.3157534243717388 1.3158733035969563 1.2970465279354686 1.3095516991554137 1.2873796195051581 1.3160231849075057 1.3206937123015796 1.293306829312173 1.3137954241742984 1.3158732016837045 1.3079164667702188 1.31694022598245 1.313404783330761 1.300892547491685 1.2803435023867764 1.311173904133129 1.2993125272623032 1.2974978030265183 1.3094220880492708 1.2999580664662893 1.3164538394512724 1.2780001287539857 1.3153712438338174 1.317931473905701 1.3163717751857624 1.3170715456050335 1.3158722066502049 1.3158727753581698 1.3173402421600846 1.3102160576533537 1.310369736850267 1.2927569831219548 1.3148967250201178 1.2951484922052277 1.3194825691642396 1.3156397184796722 1.315873632056509 1.3171836819371923 1.3158731320179027 1.3152634945356851 1.3129088328797751 1.3151238587640584 1.3075230152199502 1.3228556688396018 1.3069098863987005 1.3056063834284 1.3148434328071594 1.3023471806364328 1.3057681174142657 1.3146847001003121 1.3132137481784523 1.3050618306842163 1.3719454574366257 1.3161132566850144 1.3023644469061397 1.3143548687720525 1.315873027910202 1.3150096837181897 1.315517171174901 1.3150217682163867 1.3200406288385516 1.3164551166741438 1.3171694988691933 1.3136881534837048 1.3216482303279522 1.3149356401532628 1.3158729949482573 1.3805266395542017 1.3168966780452134 1.3155934474346738 1.305363402303325 1.3027740870173203 1.2961547320057576 1.315078783627003 1.3146204642192483 1.3074576070442612 1.2829547876469505 1.3139469083725326 1.2897378738820096 1.3058101768215709 1.3153030161747896 1.3105073427652199 1.315800979233333 1.315976576635161 1.314438417836978 1.3157634124931334 1.3143415195864143 1.3115945958976551 1.3790802952327166 1.3153290928805044 1.320077598377791 1.3153016663604384 1.3064744129288814 1.3153712874245291 1.312903655623807 1.3065910341878073 1.3203509371880506 1.3133488315496689 1.3140855082368845 1.3102058782793256 1.3043553274777915 1.2900432241902606 1.3158706302122636 1.3280543029777605 1.309587927889212 1.300685691722453 1.3141207035427984 1.3145131407078299 1.3153560521527445 1.3091578955145908 1.3099158300265736 1.317421327268208 1.3161041942000598 1.3079349842770376 1.3474325807710512 1.3158623893256711 1.3195494443933298 1.3170760381385678 1.282542553137219 1.312759325218988 1.3158497546357346 1.3157454911557906 1.3222046388438229 1.3144431909480152 1.3178881140615955 1.3158732076953215 1.2993850531360553 1.3168318524301208 1.3177429565850642 1.310494110469937 1.315872303098033 1.3154644067157535 1.315873169101583 1.315873796423871 1.3122160020088616 1.3158147904396769 1.3082633817891778 1.3158212590362477 1.3031797096706965 1.3179018112575913 1.31587253947707 1.3070575357758047 1.3163634379627869 1.2826558443945713 1.3158734731053405 1.3192294533099072 1.3211056925043614 1.306963851869238 1.3016742782267334 1.3037111507763326 1.31181386723303 1.3109349954042981 1.308713224804519 1.295613532172458 1.3164275855335628 1.2956285964531602 1.3167708388966144 1.3210125912226158 1.3158732344468151 1.30496228705725 1.3102730354118974 1.2946113592744302 1.3166265327747861 1.3158828051767086 1.3078430729190313 1.319969045059848 1.316710049796952 1.2941929042945064 1.3118304506269665 1.2996224999265664 1.3149051412532076 1.3142000792489894 1.3129843684002813 1.2836981786941501 1.3163335026294645 1.3020078335499934 1.316285721752215 1.3108019571870464 1.3135329028912508 1.298989190104999 1.3177820022797198 1.3146733231660197 1.3158711520853026 1.3083562537910496 1.3287714944405662 1.2993652846447756 1.3158567649812463 1.277724420190813 1.3158731950674645 1.2914634510805107 1.3167785830282839 1.2945927320243134 1.316579406625526 1.31166840755729 1.315816792026824 1.3140910407685795 1.3109220417673983 1.3106383451306831 1.3144672606042136 1.3158731548678515 1.3171303297852002 1.3170254956782756 1.272719405945425 1.3185873415243383 1.3061427368114105 1.3115771805267749 1.3123746470340971 1.2962100547644408 1.3158732029090665 1.3158729832097722 1.3158729946795495 1.3159570677598131 1.3069286817396337 1.3172961274040236 1.3158732189943068 1.3158735460639501 1.3119750717205134 1.30953424803553 1.3079383228821295 1.3129270836430451 1.3133614644705207 1.2998990829632369 1.2816493603870807 1.3145173981847205 1.3153033786313273 1.3067746141938557 1.3117595614120765 1.3163414573719538 1.282047264274971 1.3186030537242575 1.3158738958882956 1.3204319610697326 1.316998349697895 1.3184847442825385 1.3154644049638948 1.3101400832668508 1.3162220413521506 1.3150486142646516 1.321717949079228 1.3155589378982169 1.3155874640560787 1.3119417399811892 1.3158658718268588 1.3158794611613456 1.3146325778573196 1.3241427181111294 1.3158729683451236 1.316900117594268 1.3146137585614517 1.3152057728450584 1.3080285993714025 1.3111397371886084 1.3025487478889932 1.3121886044996036 1.31738063107777 1.315873333531064 1.3163370684291649 1.3155293740966896 1.3158730394106741 1.3206007300294302 1.2899915186468192 1.3143217171352468 1.3196605768563634 1.3158733677300318 1.3249950952607985 1.3132937225975907 1.315873355437253 1.3018545725571014 1.3104661292075899 1.317598274140817 1.3153338385001458 1.3173331730060545 1.3158962444566071 1.3179497093201356 1.322682328044626 1.3158742139315567 1.3113364261683902 1.309624350936414 1.3041671787700966 1.3171144245165238 1.3194191960856831 1.3175595940317564 1.3071789321495326 1.3146157253631063 1.300411454198835 1.2859698129902106 1.3130629274658088 1.3126945459692512 1.3048898291382989 1.3088740770102023 1.3143178548796692 1.3169069159842155 1.3167968662332956 1.2916687210404785 1.3158725468068633 1.3158724326669224 1.3075200330839587 1.3074665523774438 1.2988359172069788 1.3130519900595903 1.3054181907795912 1.2678970288389273 1.3325643918226233 1.3122622072681844 1.3168338540992117 1.3158722420087827 1.3076222410341325 1.2904476006632284 1.27441849628307 1.3528406547123126 1.3158731603933946 1.3159655718659964 1.317506314191314 1.317680339796086 1.2969013976592358 1.324479545277989 1.3088822248059582 1.3181718717743685 1.315225543905219 1.3168649665561045 1.322088716171045 1.310848269229616 1.3147305958366782 1.3118618735495442 1.3150474872845672 1.312154113465468 1.3165752239726765 1.3102023152370674 1.315868296191429 1.3228439599042379 1.3158732256278802 1.3154107878738406 1.3158732072008794 1.3157461941682203 1.3152252695659572 1.3155674956998427 1.31587320646554 1.3143531556251622 1.3158731009432623 1.322402325330329 1.3041906396567156 1.315873305466923 1.3060439607905339 1.3096002039623769 1.315208610482649 1.3170758479821887 1.2845664275865432 1.3191385305668866 1.3155354640621424 1.3234532880470133 1.3158732076658228 1.308536925351315 1.3176116219071439 1.3171668772309295 1.3171134780385434 1.3134818399941286 1.3168414433521825 1.3158732101659547 1.3109648537799434 1.3162243135541412 1.3311237322823506 1.3158792719951986 1.31592986290594 1.276704689911716 1.3158733623796384 1.3059374066640046 1.2951443198390755 1.310528204746916 1.3147012929184307 1.316636856569912 1.3158638700353302 1.2651102214397503 1.315873205804001 1.31756171217428 1.314744006960392 1.3158725533617042 1.3098668905249142 1.3153608776045667 1.3149998411077009 1.3070221708441936 1.3158732128678525 1.3159696978824678 1.3158730355778623 1.3158732040658083 1.3158731923627265 1.3158730907628375 1.3158729023818787 1.3178892411951304 1.3158312555515066 1.3214358887135327 1.3101303759231633 1.322887264618907 1.314709657501936 1.3158731816224094 1.2936213116244137 1.2752676812013382 1.3158731858857349 1.282616017097331 1.3107579876008921 1.315372400153924 1.293809843646225 1.315875122908807 1.3167761110015892 1.3143519131240025 1.3018204107853821 1.3168200128122285 1.3127341444743208 1.317088615019888 1.3110664231532705 1.3178749156651244 1.3158732059370197 1.3158732100027895 1.3071017364908584 1.3158734764969358 1.316319127326622 1.31956716138805 1.3105742981076807 1.3158732079021656 1.3114927108997199 1.3158732079151352 1.3152296083037935 1.3089197890709725 1.3171600381809465 1.3158728544869849 1.3214039255734105 1.3692701273280021 1.28708905925412 1.314838740553486 1.313846102727883 1.3146942589924484 1.3162206284867084 1.3158523071188704 1.3000311708986845 1.3052924315287207 1.315873537927168 1.3157826966784956 1.317483390355835 1.3165660592370008 1.297731503467966 1.3162836137195788 1.3158731839452145 1.3158732086501808 1.3160219236513786 1.3183709835400865 1.295907127380594 1.3098219768732762 1.3140925394003058 1.3160449992689052 1.3140330189935852 1.293568290319451 1.3161813953378194 1.3158732137998372 1.3141264987786874 1.3091592871337878 1.3012965679423893 1.3119583151022178 1.3260242224040972 1.3275319803187962 1.3041435095396239 1.3065185957762668 1.312604274837985 1.3158735668055852 1.3158732214643711 1.31587319991334 1.2790387193964903 1.318088712549992 1.3223504222664901 1.3158736570238418 1.3168039588251166 1.312760866872834 1.3071439052592453 1.3169811096524833 1.3148519327429118 1.316252478979555 1.314859214455829 1.318866742501715 1.315874128929396 1.2918648133632062 1.3167707520822045 1.3158731983385015 1.3071925105546514 1.2892918566514864 1.3172012799890713 1.3159848118485864 1.315873199477349 1.3031840269207926 1.3158731681553357 1.314568616678212 1.315554211372788 1.306080749452763 1.3066769650294963 1.3124626980694332 1.2907563094003232 1.3139977724380694 1.3158732008533236 1.304167617304225 1.3173878529553062 1.308442599058637 1.3158732956870896 1.3171417179754117 1.3131838049973128 1.3085810208094484 1.2878116877492773 1.3158726449237157 1.311247108986582 1.3245879731542984 1.3181451156721238 1.315073516310399 1.3057278287072491 1.3121576396784185 1.3152568545585932 1.315872921716489 1.31587299608537 1.3158731203570082 1.3158732117656418 1.3198157830356871 1.3104025219832587 1.3172171437263407 1.3127637137913228 1.2815872015340704 1.291132939305862 1.3158732030432718 1.3158731647543283 1.3216556301475566 1.3100419089514992 1.3148042320113895 1.3142710295524325 1.3153623670633177 1.31647829344907 1.3219569411428147 1.3172988566148667 1.2628921254063945 1.3158731954676173 1.3179846290823158 1.317417494399062 1.3137410573387325 1.3212885771897587 1.3168016639078954 1.3112884115646999 1.3158166332537906 1.3158732033056424 1.31587315525462 1.3158732384607494 1.3288231100798498 1.3144628167374637 1.315875202023343 1.28727823676736 1.312958651675674 1.2692903555822683 1.315205060829005 1.2645983743111302 1.333711299475708 1.3140153989708319 1.3094742691258296 1.3120479065284374 1.3171484127499322 1.3138255336903528 1.316618354897389 1.3199737709978336 1.3155340668867435 1.3133081954505503 1.3158732026349866 1.3176120920370096 1.3163913706493644 1.3003388083795522 1.3158731993787633 1.3158731903507452 1.315875363607407 1.3057442744038528 1.2942615031883427 1.3148462639354532 1.290667718562319 1.3171092763525796 1.3161103759759702 1.3158736796645125 1.3158732648888727 1.3130134363846977 1.265274358752989 1.3122657571772558 1.3158732951400036 1.3240878486572758 1.3174703413011273 1.3096636157308328 1.3084991140918893 1.2654116231594754 1.342618882817614 1.315873194972411 1.300175659934573 1.3153068046501517 1.304416179289132 1.3100773912636121 1.3171176278613175 1.309523440697093 1.3158732133322737 1.315924452295709 1.3140105188422628 1.3479891868693616 1.308625909734552 1.3169169793952373 1.3010434757847662 1.315873213799805 1.2761433788592524 1.326828540375966 1.3161838335957077 1.3182428310273635 1.320127542369627 1.2892587558369395 1.3158727720499 1.315471814767703 1.3158729548830803 1.3000304092299746 1.3140543071089206 1.3173002952311867 1.3124278013525414 1.262589528928166 1.2787128256570195 1.3096923817200132 1.311653458662197 1.305027428184163 1.3158732202600223 1.315873219411178 1.3154222930356991 1.315878879419787 1.3276934058053476 1.28522874338999 1.3500487817735225 1.3102521208266562 1.3112137200001488 1.3029318130645888 1.3077068694216343 1.311701743895692 1.283990367833281 1.319080886052202 1.3229131576100628 1.3152836755052326 1.3141343698513404 1.3233274235006882 1.3160527299296394 1.3159074964399757 1.315924479584133 1.3154016724092072 1.3181169339357812 1.310257711259073 1.2837323129492497 1.316036074167372 1.3171584455490086 1.3230042338188022 1.30687578110243 1.3159169214813349 1.317530471479806 1.3174218973543428 1.2634590847488536 1.3207436879433483 1.3159966378246357 1.3171118833748345 1.3128830430230152 1.315873216860315 1.3160716481624195 1.2929473650065593 1.3160567046051472 1.3158732033720735 1.3158731959383267 1.315872808599453 1.3046586692030833 1.31194093824818 1.2657432686387902 1.3193633600589085 1.3084930559435115 1.3144006517925586 1.3158732348689057 1.3155935689498737 1.31395399667271 1.3054000184023051 1.3158732019143542 1.3153506993759498 1.312968417595567 1.3162968141082032 1.3153751357999492 1.3085006784889655 1.3158732132014128 1.267116762046511 1.3158744023391364 1.3158732029202855 1.313670764278312 1.3171372544062174 1.3231023545442757 1.315873203162204 1.3158732033181344 1.3160194337531874 1.3158732298918854 1.316067986105536 1.3158733557748497 1.3157402790041928 1.3158732156545838 1.3167910538382008 1.3158733273352254 1.310976338103337 1.315973558942202 1.3024649175499015 1.317115835001556 1.314200938439483 1.3177462576738759 1.3119602165181166 1.2639756322992926 1.3141432175039602 1.263008599790526 1.320001495849143 1.3239771752725964 1.3284676388631016 1.262806690801876 1.2676954703837895 1.3414225830960294 1.3669946437621097 1.2914867114553248 1.2649801894458979 1.26560993140482 1.338899037569521 1.271561956586556 1.3210278976851724 1.3098363339572086 1.3191404247331078 1.305603415270858 1.3216948546740401 1.3147782936927501 1.3147721138066046 1.3170942312723066 1.31311589721473 1.3159567834131036 1.3131261279255337 1.3161971098771554 1.315943012364116 1.3302866167595937 1.3158732268341606 1.3076449999903912 1.3128144740598626 1.3157752250150816 1.3158732207098809 1.3094540657690796 1.3401600999458945 1.3157303802694789 1.3521037006254204 1.360924082614524 1.2921720489605126 1.316891394770607 1.3139881832023843 1.3158732204033907 1.300034166596449 1.3158731934474521 1.3128772754887446 1.3096482005509562 1.3160223259597772 1.3158732487797042 1.3167609678064829 1.323492948281818 1.315873448457264 1.3119456784160508 1.3140277