<VTKFile type="UnstructuredGrid" version="0.1" byte_order="BigEndian">
  <UnstructuredGrid>
    <Piece NumberOfPoints="1431" NumberOfCells="2697">
      <Points>
        <DataArray type="Float32" NumberOfComponents="3" Format="ascii">
          5.334000e-01 0.000000e+00 0.000000e+00
          4.267200e+00 3.733800e+00 0.000000e+00
          5.334000e-01 3.733800e+00 0.000000e+00
          -3.200400e+00 0.000000e+00 0.000000e+00
          5.334000e-01 -3.733800e+00 0.000000e+00
          4.267200e+00 -3.733800e+00 0.000000e+00
          5.228714e-01 -1.510975e-03 0.000000e+00
          5.123323e-01 -2.985707e-03 0.000000e+00
          5.017883e-01 -4.424789e-03 0.000000e+00
          4.912397e-01 -5.829447e-03 0.000000e+00
          4.806867e-01 -7.200780e-03 0.000000e+00
          4.701295e-01 -8.539758e-03 0.000000e+00
          4.595684e-01 -9.847207e-03 0.000000e+00
          4.490035e-01 -1.112383e-02 0.000000e+00
          4.384349e-01 -1.237020e-02 0.000000e+00
          4.278630e-01 -1.358671e-02 0.000000e+00
          4.172876e-01 -1.477363e-02 0.000000e+00
          4.067090e-01 -1.593111e-02 0.000000e+00
          3.961272e-01 -1.705909e-02 0.000000e+00
          3.855423e-01 -1.815740e-02 0.000000e+00
          3.749543e-01 -1.922569e-02 0.000000e+00
          3.643632e-01 -2.026344e-02 0.000000e+00
          3.537692e-01 -2.126997e-02 0.000000e+00
          3.431722e-01 -2.224443e-02 0.000000e+00
          3.325722e-01 -2.318575e-02 0.000000e+00
          3.219691e-01 -2.409272e-02 0.000000e+00
          3.113631e-01 -2.496390e-02 0.000000e+00
          3.007541e-01 -2.579765e-02 0.000000e+00
          2.901420e-01 -2.659211e-02 0.000000e+00
          2.795269e-01 -2.734517e-02 0.000000e+00
          2.689089e-01 -2.805452e-02 0.000000e+00
          2.582878e-01 -2.871753e-02 0.000000e+00
          2.476638e-01 -2.933132e-02 0.000000e+00
          2.370368e-01 -2.989269e-02 0.000000e+00
          2.264071e-01 -3.039811e-02 0.000000e+00
          2.157747e-01 -3.084366e-02 0.000000e+00
          2.051398e-01 -3.122503e-02 0.000000e+00
          1.945027e-01 -3.153742e-02 0.000000e+00
          1.838636e-01 -3.177553e-02 0.000000e+00
          1.732231e-01 -3.193342e-02 0.000000e+00
          1.625816e-01 -3.200445e-02 0.000000e+00
          1.519399e-01 -3.198116e-02 0.000000e+00
          1.412989e-01 -3.185504e-02 0.000000e+00
          1.306599e-01 -3.161639e-02 0.000000e+00
          1.200244e-01 -3.125392e-02 0.000000e+00
          1.093945e-01 -3.075441e-02 0.000000e+00
          9.877283e-02 -3.010202e-02 0.000000e+00
          8.816318e-02 -2.927745e-02 0.000000e+00
          7.757071e-02 -2.825657e-02 0.000000e+00
          6.705421e-02 -2.701490e-02 0.000000e+00
          5.862861e-02 -2.582654e-02 0.000000e+00
          5.263795e-02 -2.485856e-02 0.000000e+00
          4.740140e-02 -2.391548e-02 0.000000e+00
          4.218387e-02 -2.287234e-02 0.000000e+00
          3.699060e-02 -2.171459e-02 0.000000e+00
          3.182898e-02 -2.042326e-02 0.000000e+00
          2.670989e-02 -1.897277e-02 0.000000e+00
          2.165028e-02 -1.732728e-02 0.000000e+00
          1.667839e-02 -1.543401e-02 0.000000e+00
          1.184603e-02 -1.321029e-02 0.000000e+00
          7.261188e-03 -1.051686e-02 0.000000e+00
          3.192043e-03 -7.105264e-03 0.000000e+00
          4.144512e-04 -2.617250e-03 0.000000e+00
          4.143411e-04 2.616907e-03 0.000000e+00
          3.191798e-03 7.105000e-03 0.000000e+00
          7.260890e-03 1.051666e-02 0.000000e+00
          1.184571e-02 1.321013e-02 0.000000e+00
          1.667806e-02 1.543387e-02 0.000000e+00
          2.164994e-02 1.732716e-02 0.000000e+00
          2.670955e-02 1.897266e-02 0.000000e+00
          3.182863e-02 2.042316e-02 0.000000e+00
          3.699024e-02 2.171451e-02 0.000000e+00
          4.218351e-02 2.287227e-02 0.000000e+00
          4.740104e-02 2.391541e-02 0.000000e+00
          5.263760e-02 2.485850e-02 0.000000e+00
          5.862818e-02 2.582647e-02 0.000000e+00
          6.705398e-02 2.701487e-02 0.000000e+00
          7.757072e-02 2.825657e-02 0.000000e+00
          8.816318e-02 2.927745e-02 0.000000e+00
          9.877283e-02 3.010202e-02 0.000000e+00
          1.093945e-01 3.075441e-02 0.000000e+00
          1.200244e-01 3.125392e-02 0.000000e+00
          1.306599e-01 3.161639e-02 0.000000e+00
          1.412989e-01 3.185504e-02 0.000000e+00
          1.519399e-01 3.198116e-02 0.000000e+00
          1.625816e-01 3.200445e-02 0.000000e+00
          1.732231e-01 3.193342e-02 0.000000e+00
          1.838636e-01 3.177553e-02 0.000000e+00
          1.945027e-01 3.153742e-02 0.000000e+00
          2.051398e-01 3.122503e-02 0.000000e+00
          2.157747e-01 3.084366e-02 0.000000e+00
          2.264071e-01 3.039810e-02 0.000000e+00
          2.370368e-01 2.989269e-02 0.000000e+00
          2.476638e-01 2.933132e-02 0.000000e+00
          2.582878e-01 2.871753e-02 0.000000e+00
          2.689089e-01 2.805452e-02 0.000000e+00
          2.795269e-01 2.734517e-02 0.000000e+00
          2.901420e-01 2.659211e-02 0.000000e+00
          3.007541e-01 2.579765e-02 0.000000e+00
          3.113631e-01 2.496390e-02 0.000000e+00
          3.219691e-01 2.409272e-02 0.000000e+00
          3.325722e-01 2.318575e-02 0.000000e+00
          3.431722e-01 2.224443e-02 0.000000e+00
          3.537692e-01 2.126997e-02 0.000000e+00
          3.643632e-01 2.026344e-02 0.000000e+00
          3.749543e-01 1.922569e-02 0.000000e+00
          3.855423e-01 1.815740e-02 0.000000e+00
          3.961272e-01 1.705909e-02 0.000000e+00
          4.067090e-01 1.593111e-02 0.000000e+00
          4.172876e-01 1.477363e-02 0.000000e+00
          4.278630e-01 1.358671e-02 0.000000e+00
          4.384349e-01 1.237020e-02 0.000000e+00
          4.490035e-01 1.112383e-02 0.000000e+00
          4.595684e-01 9.847207e-03 0.000000e+00
          4.701295e-01 8.539758e-03 0.000000e+00
          4.806867e-01 7.200780e-03 0.000000e+00
          4.912397e-01 5.829447e-03 0.000000e+00
          5.017883e-01 4.424788e-03 0.000000e+00
          5.123323e-01 2.985707e-03 0.000000e+00
          5.228714e-01 1.510975e-03 0.000000e+00
          -3.162395e+00 -5.313751e-01 0.000000e+00
          -3.049155e+00 -1.051933e+00 0.000000e+00
          -2.862984e+00 -1.551077e+00 0.000000e+00
          -2.607672e+00 -2.018645e+00 0.000000e+00
          -2.288418e+00 -2.445119e+00 0.000000e+00
          -1.911719e+00 -2.821818e+00 0.000000e+00
          -1.485245e+00 -3.141072e+00 0.000000e+00
          -1.017677e+00 -3.396384e+00 0.000000e+00
          -5.185330e-01 -3.582555e+00 0.000000e+00
          2.024859e-03 -3.695795e+00 0.000000e+00
          -3.162395e+00 5.313751e-01 0.000000e+00
          -3.049155e+00 1.051933e+00 0.000000e+00
          -2.862984e+00 1.551077e+00 0.000000e+00
          -2.607672e+00 2.018645e+00 0.000000e+00
          -2.288418e+00 2.445119e+00 0.000000e+00
          -1.911719e+00 2.821818e+00 0.000000e+00
          -1.485245e+00 3.141072e+00 0.000000e+00
          -1.017677e+00 3.396384e+00 0.000000e+00
          -5.185330e-01 3.582555e+00 0.000000e+00
          2.024859e-03 3.695795e+00 0.000000e+00
          4.267200e+00 -3.200400e+00 0.000000e+00
          4.267200e+00 -2.667000e+00 0.000000e+00
          4.267200e+00 -2.133600e+00 0.000000e+00
          4.267200e+00 -1.600200e+00 0.000000e+00
          4.267200e+00 -1.066800e+00 0.000000e+00
          4.267200e+00 -5.334000e-01 0.000000e+00
          4.267200e+00 1.041376e-08 0.000000e+00
          4.267200e+00 5.334000e-01 0.000000e+00
          4.267200e+00 1.066800e+00 0.000000e+00
          4.267200e+00 1.600200e+00 0.000000e+00
          4.267200e+00 2.133600e+00 0.000000e+00
          4.267200e+00 2.667000e+00 0.000000e+00
          4.267200e+00 3.200400e+00 0.000000e+00
          3.733800e+00 3.733800e+00 0.000000e+00
          3.200400e+00 3.733800e+00 0.000000e+00
          2.667000e+00 3.733800e+00 0.000000e+00
          2.133600e+00 3.733800e+00 0.000000e+00
          1.600200e+00 3.733800e+00 0.000000e+00
          1.066800e+00 3.733800e+00 0.000000e+00
          3.733800e+00 -3.733800e+00 0.000000e+00
          3.200400e+00 -3.733800e+00 0.000000e+00
          2.667000e+00 -3.733800e+00 0.000000e+00
          2.133600e+00 -3.733800e+00 0.000000e+00
          1.600200e+00 -3.733800e+00 0.000000e+00
          1.066800e+00 -3.733800e+00 0.000000e+00
          4.342290e-01 2.236181e-02 0.000000e+00
          2.963457e-01 3.370866e-02 0.000000e+00
          4.342288e-01 -2.235934e-02 0.000000e+00
          2.972354e-01 -3.654075e-02 0.000000e+00
          3.827396e+00 1.350712e+00 0.000000e+00
          1.900780e+00 -3.253153e+00 0.000000e+00
          1.378485e+00 3.318460e+00 0.000000e+00
          3.818950e+00 -7.767073e-01 0.000000e+00
          3.079105e-01 -3.302894e+00 0.000000e+00
          -1.539230e-01 3.219252e+00 0.000000e+00
          -1.403615e+00 -2.617609e+00 0.000000e+00
          -1.817697e+00 2.297794e+00 0.000000e+00
          -2.558430e+00 -1.153966e+00 0.000000e+00
          -2.687114e+00 6.811607e-01 0.000000e+00
          3.785792e+00 2.743300e-01 0.000000e+00
          3.820488e+00 -1.848156e+00 0.000000e+00
          2.400300e+00 3.271862e+00 0.000000e+00
          3.813712e+00 2.399226e+00 0.000000e+00
          2.933987e+00 -3.284586e+00 0.000000e+00
          -2.290287e+00 1.613593e+00 0.000000e+00
          -2.770458e+00 -1.779223e-01 0.000000e+00
          -2.146502e+00 -1.973320e+00 0.000000e+00
          -1.042533e+00 2.901788e+00 0.000000e+00
          -6.193488e-01 -3.019405e+00 0.000000e+00
          3.747298e+00 -2.934282e+00 0.000000e+00
          3.440589e+00 3.204045e+00 0.000000e+00
          3.827204e+00 -2.755109e-01 0.000000e+00
          3.425019e+00 -5.393100e-01 0.000000e+00
          3.395320e+00 -9.620901e-01 0.000000e+00
          3.049637e+00 -7.592207e-01 0.000000e+00
          3.021259e+00 -1.139809e+00 0.000000e+00
[...]
      <CellData Scalars="scalars">
        <DataArray type="Float32" Name="rho" Format="ascii">
          1.3114159201657423 1.3168070418259081 1.3173153410619751 1.3165275784555202 1.3106161179581577 1.3178049435541694 1.3154429398031573 1.3183022230966637 1.2803832819166965 1.3341242066036423 1.345879716698662 1.3141415703414239 1.3151874674527402 1.329703088476466 1.317737282505653 1.2970763643526908 1.303591023965191 1.314312491420563 1.317837703484705 1.30902943817624 1.317548482597862 1.3091949383472468 1.3230042849708736 1.3166622147460547 1.3154575029891438 1.3311325208840308 1.3159392971496038 1.3155523654462435 1.3205907635902538 1.3159958493501855 1.316056367608393 1.3076907012665377 1.3192924248355664 1.2794519836785048 1.3220521600890138 1.3158966975463873 1.304109929980776 1.3065167872598593 1.2926744963109684 1.281036289625289 1.3389739195690575 1.3160285517808612 1.286400662667809 1.2980656129019714 1.315093733568052 1.2992244725559756 1.289122522833094 1.3174855325595456 1.322771713976963 1.3072580674466936 1.316424494404247 1.3209911365193372 1.3080955739388949 1.3212257534926537 1.3160883520642184 1.3171694637793683 1.3157647748789962 1.3299550457813147 1.302834301400812 1.3169855142801465 1.3160626598616658 1.3175364269787437 1.3101208807452607 1.3487846717287348 1.3165470574125975 1.3090193263420615 1.315569508295764 1.3094074288114612 1.3048680827539882 1.3165148644364961 1.3188493710919644 1.3035225613833936 1.3159527189220102 1.3165143076029027 1.317620565920263 1.3160681660598907 1.3151322835315413 1.3193683408346046 1.3149870117295008 1.3170630449407066 1.3154592951299633 1.3121375649300362 1.317084179623369 1.3101131473888368 1.3158566120430173 1.2997997923570053 1.3159587878381065 1.3203744646812026 1.3179624458218198 1.3060208915521248 1.3101321058992792 1.315170965627407 1.2735353109580931 1.3159690870122067 1.3174861840892294 1.281980752843898 1.3150237725301526 1.3187730367036368 1.313117351942721 1.3621956587150366 1.3157630070675554 1.347439582387669 1.3125860754989893 1.3125971693817855 1.314117887542735 1.3173426881530321 1.288199563345581 1.3172576360137154 1.3159511212136958 1.322230991877707 1.3095103125880916 1.2968256170452197 1.3075364622658237 1.3171813047523435 1.3138194707508664 1.3098631291369731 1.3208601025957623 1.282305162149125 1.3069232881619963 1.3222044388801595 1.2864902333623849 1.3134331005472508 1.2739859750037386 1.3159473275868783 1.2962968891152957 1.311020811963937 1.3174802798150598 1.2730559453187724 1.3159695912044185 1.2825280089488982 1.3230684304884568 1.3227004480851687 1.3150747267931064 1.3170756655431397 1.315675419295901 1.2907303229192828 1.306741727436299 1.3163860863395465 1.3171483360796676 1.300874439305269 1.3165310250399556 1.3154957637223017 1.3030477097731894 1.2948284052353354 1.3172062518688108 1.308655167671608 1.3155803582285683 1.31523938180936 1.312967413020652 1.3159993918986101 1.3169328660168158 1.3159716635899883 1.3123076437620391 1.3003247926862458 1.3248552148620814 1.3300215145035637 1.2817550695740825 1.317746640475798 1.3149716539785548 1.2893021980196073 1.3167177827030065 1.3429590971169065 1.3171932672364912 1.3104228315215747 1.2892711912538923 1.3004391629230856 1.3107727908220612 1.3172327374948287 1.3128039233657298 1.3217819417733832 1.3082430449167015 1.3135948898713494 1.315967939546132 1.3111854548587267 1.317422604217664 1.3096426232218634 1.3115235848010363 1.3160881957232653 1.2706133860105941 1.3554287435819397 1.272553009897143 1.310894768288472 1.300898362733679 1.3115806241387307 1.3166969282042897 1.3147748589814332 1.3185225074815032 1.3103705299652288 1.3098064651439718 1.319108853986696 1.2989279320878722 1.3091163791459581 1.3140520374224285 1.3110683153110592 1.3036397568456544 1.3121464356271437 1.3170360930632834 1.2998873382412577 1.3239688742898124 1.3166972050771006 1.314171549546155 1.3138521130020595 1.3170927794900693 1.3119906874545948 1.308561405819682 1.3192056489262822 1.287016572995036 1.3161708905686793 1.316616556688427 1.317057773196922 1.291508309516802 1.3172156176173466 1.3171203862360275 1.3206923123471415 1.2701343019812066 1.3025160215110867 1.2992254735931967 1.2668766139787713 1.3133970522562708 1.2862246340134196 1.295050703102727 1.3171730858281554 1.2941579969860315 1.3159788660857408 1.3123896264183843 1.3519880225450396 1.3159307857047458 1.3210377197725716 1.3099926967570004 1.3169196907938023 1.3178298228163121 1.3080993324652117 1.3194255065404026 1.290333596804011 1.3162338859417206 1.3047617806467244 1.3048390655557813 1.3159483192174521 1.3126810543227088 1.2774861654555667 1.3412158440745243 1.3110332232701678 1.3103334143445604 1.3123916241640168 1.3163346243572283 1.3023981911911673 1.296863294983283 1.3197643917094184 1.3119704639175687 1.3164692831817768 1.3104029236455603 1.29759491028936 1.3097000047305833 1.3172568322940996 1.3105986228755666 1.3164538359762576 1.2683426892685055 1.311967455341443 1.279849042824853 1.2954254886880296 1.3144417556188597 1.3133651770861077 1.3169126001929254 1.3106949434676125 1.3166018337945422 1.2907796444007498 1.3148440720933054 1.3462849113442332 1.2928047660505582 1.3064095429859894 1.2880701933924517 1.3113389011774734 1.3165085986566554 1.3152881187407333 1.278426510252431 1.3134093451968856 1.3093449825036405 1.3151000084626374 1.3064360668413462 1.317205433354863 1.3132337202539455 1.283458671663689 1.2813913159742105 1.3172150995173575 1.3239637264756507 1.332947548875124 1.3102634212503952 1.3161614497201708 1.3161295599474712 1.3119668873370465 1.315725653585434 1.308446082730019 1.302659250680371 1.3162053663989566 1.3104710019957388 1.2935619894267456 1.3012325471963808 1.3152213771187913 1.3188219743327743 1.3010646246401056 1.3066698746518683 1.309634281814421 1.2877919110427383 1.3145215402600414 1.2856359651007736 1.316029206311085 1.3172033654391777 1.2954971053791013 1.3123117664224004 1.2847713219702535 1.3177340715838257 1.3213542290500075 1.2897759445052877 1.3136801701951273 1.316059669417688 1.3113453504891541 1.3172817080661599 1.3155295464714882 1.299717728938952 1.2776665979740691 1.310641379539336 1.2974418846686557 1.2958845675198705 1.3112502081493833 1.2987439000450591 1.3158848107920198 1.2743339929209911 1.3150582636717796 1.3185487198586872 1.3154621140922824 1.3167178240994912 1.315929250096569 1.3158977163144492 1.3171551773994887 1.312622857451618 1.3166822268721856 1.2907715639607797 1.3183658925314068 1.2936350764829607 1.3202910212580286 1.3162386989333572 1.3154415168042708 1.3167271315631632 1.3159860275764172 1.3170541443263668 1.3124711878991395 1.3170438168944358 1.306069543234014 1.3177904054475158 1.3062336540911867 1.3046438102309612 1.3146357471839563 1.3011448299787272 1.3093474540975403 1.314020922127674 1.3127308444548695 1.3083416926907734 1.3735614617105343 1.3173041058733757 1.3011816418764848 1.313626392243082 1.3157234388952606 1.3200480578078233 1.31425166395013 1.3163607974048885 1.3203886934059095 1.3173492892682255 1.3222599163851778 1.3166428774692562 1.3220067793226535 1.3152233661312323 1.3159392625330917 1.3803117615392528 1.3173299109548442 1.3163411860952159 1.3094548208249497 1.3009590324252487 1.2945790726176973 1.315558223157432 1.314169512417193 1.3065439055270913 1.2804494544976364 1.3141408868133098 1.2878302727130662 1.3043330939899687 1.3144807441862478 1.309376868562871 1.3140122073713265 1.3159395167970636 1.3163177141138682 1.316221590532697 1.31603974285445 1.3107067082281274 1.3790119290355367 1.3147579124951303 1.3207348178033362 1.314455814983546 1.3055922863491998 1.314680272535474 1.3146290124223412 1.309675027762587 1.3204947498863204 1.3125272768050658 1.315561176686858 1.3088900266014427 1.302846557270136 1.2878139936259752 1.3159898385102917 1.3309764480126944 1.3119647048867118 1.2994392421283179 1.313135403522797 1.3136976046849227 1.3163592683291703 1.3133296700439103 1.312120406168566 1.3168818762843812 1.3153604885268366 1.3123800335479539 1.3463557673612185 1.3159873417474264 1.3241913009996158 1.3172264891632501 1.2798028054364152 1.3147204022327872 1.316043506060837 1.3163193858499218 1.3259031705370936 1.313941197860038 1.3178080273296804 1.316762929256187 1.2980681895799024 1.3176870379441221 1.3178822133006296 1.3127633806256553 1.3160075254674628 1.316928255250127 1.3157194830014174 1.3171715094154937 1.3144442183956715 1.3165345546548262 1.3110023795424224 1.3160000747313665 1.3015207273169953 1.318223753555176 1.315530878577164 1.3057420788632308 1.3144286132245198 1.2801813098208228 1.3170792910836542 1.3193950503356844 1.317471013452201 1.3097923771990727 1.299954946196759 1.302192748277079 1.3134890290497367 1.313360235938964 1.311652482440078 1.294030900517772 1.3176458799932578 1.294156919673434 1.3173452221062694 1.3184415957360258 1.3169373800227915 1.3086040010726474 1.3124986130018652 1.2929780876925174 1.3174121066760633 1.317159902649881 1.312801581010223 1.3159609219158022 1.3163678767444646 1.2925200458898591 1.3108010188418837 1.2977232884699437 1.3139950201795774 1.3157542967576563 1.3152531233208717 1.2794120394038466 1.3149374499043924 1.3009719359942975 1.3146411694028506 1.3132601392470848 1.3137354642315415 1.2975564433941251 1.317549179157778 1.316332782906107 1.3163586658218833 1.3109405748685112 1.3335241747873965 1.2978948466196203 1.3161521639718627 1.2745006258920564 1.3159421580757231 1.2895476921686189 1.3164208300087576 1.2927577674762318 1.3146956973660302 1.3146557939186718 1.3162925957144809 1.315544107161397 1.3095825059636956 1.309451009820259 1.316636966380418 1.3160121723037246 1.3176010638173685 1.3178078435191316 1.2672749890476764 1.3195244169717995 1.3108421235899916 1.3143031160347187 1.313632641007953 1.2946974126796345 1.3166932170060772 1.3159417991613975 1.3156100460998936 1.3168670353464338 1.3098496934002963 1.3172799368655181 1.3163602379611707 1.3168550607297302 1.3130954066995508 1.3121082882729105 1.3070858121929452 1.312327173942319 1.3123776133690335 1.298201099258817 1.2788616980324086 1.3153843256117383 1.3155286141722524 1.305798390953263 1.3106040226918907 1.315496171615758 1.2788058860761562 1.3172093659833912 1.3155536905585379 1.3211209613157189 1.3166107616258107 1.3190791656636525 1.3154009026560811 1.3090686838498495 1.3169268648037926 1.3164379416136407 1.3177058964062083 1.3156680501669802 1.318337750987977 1.3182599441447582 1.316026541069735 1.3156574127723144 1.3160489272674931 1.328684123829045 1.3161821592125775 1.317836528119802 1.3137732963207962 1.31442589856085 1.3119335076706762 1.3131405283116044 1.2955594685609808 1.3142619366011161 1.3153822438514917 1.3168054931895485 1.3170401929262103 1.3150077470113828 1.3162364191412426 1.3173085070615371 1.288031443937453 1.3163546562513198 1.3194376403243266 1.3169368376871606 1.3307345610128718 1.3150244696759366 1.3172370436220198 1.300673892804281 1.3129177444855413 1.318530206798242 1.3181073520146085 1.3167717907778258 1.3168165131185499 1.318892571592034 1.3227058700494145 1.3171097882979514 1.3156652110490201 1.31206307422357 1.303053091574892 1.3140987125499062 1.3192068392586611 1.323419961535494 1.310767351080832 1.316097728684442 1.298502311807946 1.2835786749319897 1.314551848305187 1.3186130032168533 1.3090495937413023 1.3074459056144603 1.3189977099197292 1.3174515020975321 1.3164920626846113 1.2897262123866797 1.315952936853179 1.3158523810998288 1.3106117480536443 1.3101525644375756 1.297561152562813 1.3159015526548077 1.3045374978268387 1.2608268616463034 1.3396377939708521 1.3134671522574144 1.3174950885952728 1.3161264174317953 1.3039954184335134 1.2885153708248342 1.2648054479696396 1.3597646986175025 1.3156250043364572 1.3172545517509993 1.3176130531498182 1.31872392874385 1.2954121545905393 1.3192854537736833 1.3112485461534664 1.3191609634217993 1.3166876352610792 1.3177604333166977 1.3177914192382663 1.3105888053187915 1.3139026434472638 1.311175960919704 1.3142324352945143 1.314688525483022 1.3170147052818026 1.3126016107861527 1.3160931235856441 1.3179027216288892 1.3168441525076862 1.3178507967148343 1.3166393131485148 1.3164241984130298 1.3165632599059605 1.3210708757948575 1.3174656677451158 1.317637643181016 1.3158612814413984 1.3182541579978913 1.302983712146227 1.3161280929694148 1.3091782443957256 1.3087738690683335 1.3187792695757958 1.3166619584969612 1.2820370846377571 1.318954724455798 1.315555956250775 1.3273756609767058 1.3152706550972657 1.3078958468246022 1.3182036523019922 1.3162021289199601 1.3174481488919934 1.315702971156143 1.317603258450113 1.3174329686825468 1.3128498765709522 1.3158313518387263 1.3369851302321227 1.3171547649421447 1.3172200786503416 1.2727997379013696 1.3157840225548945 1.3093298886966387 1.293626520221825 1.3099405639236739 1.3154865048799924 1.3150492332289114 1.3174803318594153 1.2593638918875385 1.315013104750494 1.3176531496916093 1.3139616904148141 1.3160747571689595 1.3124479121338761 1.3140848985957942 1.3151583497673445 1.305727414457735 1.3170192193348518 1.3165680402361766 1.3159362192516622 1.316740476062769 1.315696180715863 1.3159338585786544 1.3158982032144764 1.3187297892224934 1.3162115154270364 1.316146862587256 1.3123217282491648 1.3226093836615058 1.3163700615583345 1.3163039851433214 1.2919455623020517 1.2704093572124375 1.3162041398565731 1.279984223582571 1.3100234661387664 1.3156570862472896 1.2921572145304767 1.3157877682741088 1.3168595762865587 1.3151494935788548 1.3004633187826535 1.3169207330447983 1.3140066230528045 1.3168372216387112 1.3106023140680028 1.3209607905725167 1.3171687058987025 1.315920590749414 1.3056620645997001 1.314748404345901 1.31404613795524 1.3195317622996559 1.3131357094526308 1.3175614804311069 1.3130631229824818 1.3168087562542223 1.3166112430035217 1.3115398163410894 1.3145782045806438 1.3160073692635184 1.3176715710429445 1.3713658464399534 1.2841206836664676 1.314984910768918 1.313619299465932 1.3162723792077526 1.3172466137171066 1.316262677913685 1.298513446275789 1.3038448343197153 1.3158920104958305 1.3144081237684857 1.3170222769006825 1.3170435381872723 1.2960513902901218 1.3179457830270223 1.3158276853536683 1.3148338553601218 1.3152466925102921 1.3171275830058562 1.2940681708790982 1.3109478638967604 1.3158923391594657 1.314725505522782 1.314852143383166 1.2915533964394337 1.3157964630441759 1.3172355066779025 1.3153041422600493 1.3115629826999686 1.299566133899972 1.313861760063 1.3257995170290886 1.320257780894953 1.3030568508284313 1.305455496812065 1.311877490651118 1.3161510364382443 1.3174523358250332 1.315161120053371 1.2762497648952422 1.324144275130018 1.316947582233482 1.3169226831398182 1.3167395280850787 1.3159387873508273 1.306245673561825 1.31820939277146 1.3166351264204885 1.3173126549276117 1.316452067857053 1.3154123591314557 1.316875195438875 1.289671601190582 1.3173974755511406 1.316212196947814 1.3099287683232173 1.2862204890797082 1.3170517459133715 1.314557515476138 1.3162983668566535 1.3016295774161837 1.3162170208118413 1.315015097136756 1.3160281473316748 1.305279136105051 1.3107231560085248 1.3149561313792526 1.2882834544213935 1.314685720518893 1.3163955716703404 1.3027823274043564 1.317186147747056 1.3075578448499119 1.3147519923597206 1.3182824218386866 1.3124834094483624 1.311344233618154 1.284557635595713 1.3156414019499358 1.3098621044487648 1.3245714721048116 1.31833531756645 1.316431989873033 1.3042908775662359 1.313564461119223 1.3209380770381507 1.3159067024597637 1.3158946606523012 1.3163903230705345 1.3168998850293832 1.3242462937615622 1.3125343732512194 1.31761335428786 1.311600194109641 1.2759118371811322 1.2887956020891131 1.316629174955172 1.3160386909371171 1.3216098740999038 1.3112831963047253 1.316665895631931 1.3134741628636217 1.3148801950016769 1.3166474388194063 1.3177645717169197 1.3169319613060049 1.2568705851105884 1.3157586726651016 1.3165164396861107 1.3172954789430946 1.315520602666037 1.3229003979074792 1.3163686928819434 1.314438412224105 1.3163844489840197 1.3166843638196575 1.3159690596759828 1.3167384626291787 1.3344448455690339 1.3190066275061072 1.316967323568537 1.285108867138795 1.3122514516153845 1.2652720429127449 1.315727258641337 1.2569683555471962 1.3410572048142289 1.3146551041654435 1.3084191500366864 1.3145602809341876 1.3174187620733675 1.3134914748857003 1.3171329628551527 1.3197184577162864 1.3202480855254786 1.3156796209792532 1.316189009946499 1.3184471178775736 1.3168585201673022 1.2991420544941317 1.3158405430089481 1.3160364480851008 1.315937492043979 1.3088568611442915 1.2912772262097858 1.3183098754703302 1.2886930995672674 1.316489145291973 1.3156789275072427 1.3169819368822249 1.3152858008481385 1.3142319983943203 1.2601078944229656 1.314363361864859 1.3154496251942165 1.3275585727826158 1.3150084013627212 1.3146417296822053 1.3116536741439682 1.2592538633395312 1.345276471343779 1.3161201125759756 1.2984688686672234 1.3168402476617924 1.3092249927038524 1.3126191386027841 1.3169634540440458 1.3082078010119387 1.317314927979988 1.3154198410207396 1.3156416689119612 1.3429788119383865 1.311051296958582 1.3144814869462627 1.2999948091703932 1.317413696244037 1.2708217145825231 1.3315458390863215 1.317719371206321 1.31736869501103 1.32001660551291 1.2869332120601054 1.315264846001181 1.3152723722432778 1.3151511654916546 1.2986736960716492 1.3161290242026338 1.3169407681745646 1.3132020581044928 1.2561046764755182 1.2754988741265492 1.3119509175461466 1.314714921210404 1.3036194873964437 1.3173320938993218 1.3150620912759947 1.3192717900920559 1.3155097252404004 1.3346564597863326 1.2773300533420628 1.35630442367468 1.309687085679964 1.3155309162242108 1.3071733313493212 1.310322867000115 1.3138175803366658 1.2816249297156068 1.318852054776511 1.3297470764999926 1.3148194202314856 1.3166671867302495 1.3178342007894148 1.3149826807922822 1.3159256285689223 1.3144419612187044 1.317289043089427 1.3169598321623248 1.312961392154469 1.280405758680058 1.3169753496288996 1.3163722044845017 1.3175533738904228 1.3128732691520546 1.315130745107475 1.3185738776379625 1.316896964121039 1.2581277935154016 1.3212697722740525 1.3153762470694836 1.3182922551156515 1.3151522974592427 1.3148804760587496 1.3165865826617367 1.2912657477913014 1.3168005847869153 1.3166049987922201 1.316041488108006 1.3157739019675072 1.3032520959540619 1.3106727666683764 1.2612522253238652 1.3260742568355672 1.3110088810172384 1.3134879614607933 1.3170411388893064 1.3179921736957219 1.3204007348716333 1.3045084669270715 1.3160916100526 1.3164647872866304 1.3118979982101462 1.3228671428534986 1.316254223426707 1.3118918770035934 1.3171553022525504 1.2629452250939421 1.3147347340018605 1.3164134504611373 1.3158817752813734 1.3173751368208424 1.3228673624279 1.3159997033091833 1.3161559064538415 1.3169221917247378 1.3167739766850328 1.3170205561458617 1.3166346728636482 1.3156416564042142 1.3174671647526617 1.3165050355477372 1.3168600515591216 1.313649277226089 1.3170198059490128 1.2945810650812712 1.3170240243042841 1.3170819781764649 1.31741743082912 1.3184065908762792 1.2588960691866693 1.320739316679582 1.2573711973741462 1.3269111989024474 1.3310506917538054 1.3357021942205414 1.2558027130204368 1.2591774404734766 1.3487602702480372 1.3725112223444187 1.2807993298038356 1.2595678895679367 1.2590129830097823 1.3459214126134635 1.2638646308555719 1.3176578841962097 1.309470861983393 1.3199663423238188 1.3045614142838085 1.3179132232092634 1.3163032976540594 1.31432756103897 1.3142977159718137 1.3152031560208035 1.3146887053490177 1.3125225542229904 1.318235778753007 1.317154441160458 1.3300010157611801 1.317242516328306 1.3070318854080556 1.31465299066998 1.3152287231361757 1.3148544246248075 1.3115127222393574 1.3305622827352077 1.315797681075687 1.3562347429854835 1.3664982603781708 1.2830627621052206 1.3181565259539 1.3152685120700247 1.3147805026155381 1.298779917836534 1.3161480395684906 1.315258435717419 1.3087594967454281 1.317093071075726 1.3171410468307774 1.3235081592558384 1.323451699284412 1.3163083255091417 1.31258