<VTKFile type="UnstructuredGrid" version="0.1" byte_order="BigEndian">
  <UnstructuredGrid>
    <Piece NumberOfPoints="1431" NumberOfCells="2697">
      <Points>
        <DataArray type="Float32" NumberOfComponents="3" Format="ascii">
          5.334000e-01 0.000000e+00 0.000000e+00
          4.267200e+00 3.733800e+00 0.000000e+00
          5.334000e-01 3.733800e+00 0.000000e+00
          -3.200400e+00 0.000000e+00 0.000000e+00
          5.334000e-01 -3.733800e+00 0.000000e+00
          4.267200e+00 -3.733800e+00 0.000000e+00
          5.228714e-01 -1.510975e-03 0.000000e+00
          5.123323e-01 -2.985707e-03 0.000000e+00
          5.017883e-01 -4.424789e-03 0.000000e+00
          4.912397e-01 -5.829447e-03 0.000000e+00
          4.806867e-01 -7.200780e-03 0.000000e+00
          4.701295e-01 -8.539758e-03 0.000000e+00
          4.595684e-01 -9.847207e-03 0.000000e+00
          4.490035e-01 -1.112383e-02 0.000000e+00
          4.384349e-01 -1.237020e-02 0.000000e+00
          4.278630e-01 -1.358671e-02 0.000000e+00
          4.172876e-01 -1.477363e-02 0.000000e+00
          4.067090e-01 -1.593111e-02 0.000000e+00
          3.961272e-01 -1.705909e-02 0.000000e+00
          3.855423e-01 -1.815740e-02 0.000000e+00
          3.749543e-01 -1.922569e-02 0.000000e+00
          3.643632e-01 -2.026344e-02 0.000000e+00
          3.537692e-01 -2.126997e-02 0.000000e+00
          3.431722e-01 -2.224443e-02 0.000000e+00
          3.325722e-01 -2.318575e-02 0.000000e+00
          3.219691e-01 -2.409272e-02 0.000000e+00
          3.113631e-01 -2.496390e-02 0.000000e+00
          3.007541e-01 -2.579765e-02 0.000000e+00
          2.901420e-01 -2.659211e-02 0.000000e+00
          2.795269e-01 -2.734517e-02 0.000000e+00
          2.689089e-01 -2.805452e-02 0.000000e+00
          2.582878e-01 -2.871753e-02 0.000000e+00
          2.476638e-01 -2.933132e-02 0.000000e+00
          2.370368e-01 -2.989269e-02 0.000000e+00
          2.264071e-01 -3.039811e-02 0.000000e+00
          2.157747e-01 -3.084366e-02 0.000000e+00
          2.051398e-01 -3.122503e-02 0.000000e+00
          1.945027e-01 -3.153742e-02 0.000000e+00
          1.838636e-01 -3.177553e-02 0.000000e+00
          1.732231e-01 -3.193342e-02 0.000000e+00
          1.625816e-01 -3.200445e-02 0.000000e+00
          1.519399e-01 -3.198116e-02 0.000000e+00
          1.412989e-01 -3.185504e-02 0.000000e+00
          1.306599e-01 -3.161639e-02 0.000000e+00
          1.200244e-01 -3.125392e-02 0.000000e+00
          1.093945e-01 -3.075441e-02 0.000000e+00
          9.877283e-02 -3.010202e-02 0.000000e+00
          8.816318e-02 -2.927745e-02 0.000000e+00
          7.757071e-02 -2.825657e-02 0.000000e+00
          6.705421e-02 -2.701490e-02 0.000000e+00
          5.862861e-02 -2.582654e-02 0.000000e+00
          5.263795e-02 -2.485856e-02 0.000000e+00
          4.740140e-02 -2.391548e-02 0.000000e+00
          4.218387e-02 -2.287234e-02 0.000000e+00
          3.699060e-02 -2.171459e-02 0.000000e+00
          3.182898e-02 -2.042326e-02 0.000000e+00
          2.670989e-02 -1.897277e-02 0.000000e+00
          2.165028e-02 -1.732728e-02 0.000000e+00
          1.667839e-02 -1.543401e-02 0.000000e+00
          1.184603e-02 -1.321029e-02 0.000000e+00
          7.261188e-03 -1.051686e-02 0.000000e+00
          3.192043e-03 -7.105264e-03 0.000000e+00
          4.144512e-04 -2.617250e-03 0.000000e+00
          4.143411e-04 2.616907e-03 0.000000e+00
          3.191798e-03 7.105000e-03 0.000000e+00
          7.260890e-03 1.051666e-02 0.000000e+00
          1.184571e-02 1.321013e-02 0.000000e+00
          1.667806e-02 1.543387e-02 0.000000e+00
          2.164994e-02 1.732716e-02 0.000000e+00
          2.670955e-02 1.897266e-02 0.000000e+00
          3.182863e-02 2.042316e-02 0.000000e+00
          3.699024e-02 2.171451e-02 0.000000e+00
          4.218351e-02 2.287227e-02 0.000000e+00
          4.740104e-02 2.391541e-02 0.000000e+00
          5.263760e-02 2.485850e-02 0.000000e+00
          5.862818e-02 2.582647e-02 0.000000e+00
          6.705398e-02 2.701487e-02 0.000000e+00
          7.757072e-02 2.825657e-02 0.000000e+00
          8.816318e-02 2.927745e-02 0.000000e+00
          9.877283e-02 3.010202e-02 0.000000e+00
          1.093945e-01 3.075441e-02 0.000000e+00
          1.200244e-01 3.125392e-02 0.000000e+00
          1.306599e-01 3.161639e-02 0.000000e+00
          1.412989e-01 3.185504e-02 0.000000e+00
          1.519399e-01 3.198116e-02 0.000000e+00
          1.625816e-01 3.200445e-02 0.000000e+00
          1.732231e-01 3.193342e-02 0.000000e+00
          1.838636e-01 3.177553e-02 0.000000e+00
          1.945027e-01 3.153742e-02 0.000000e+00
          2.051398e-01 3.122503e-02 0.000000e+00
          2.157747e-01 3.084366e-02 0.000000e+00
          2.264071e-01 3.039810e-02 0.000000e+00
          2.370368e-01 2.989269e-02 0.000000e+00
          2.476638e-01 2.933132e-02 0.000000e+00
          2.582878e-01 2.871753e-02 0.000000e+00
          2.689089e-01 2.805452e-02 0.000000e+00
          2.795269e-01 2.734517e-02 0.000000e+00
          2.901420e-01 2.659211e-02 0.000000e+00
          3.007541e-01 2.579765e-02 0.000000e+00
          3.113631e-01 2.496390e-02 0.000000e+00
          3.219691e-01 2.409272e-02 0.000000e+00
          3.325722e-01 2.318575e-02 0.000000e+00
          3.431722e-01 2.224443e-02 0.000000e+00
          3.537692e-01 2.126997e-02 0.000000e+00
          3.643632e-01 2.026344e-02 0.000000e+00
          3.749543e-01 1.922569e-02 0.000000e+00
          3.855423e-01 1.815740e-02 0.000000e+00
          3.961272e-01 1.705909e-02 0.000000e+00
          4.067090e-01 1.593111e-02 0.000000e+00
          4.172876e-01 1.477363e-02 0.000000e+00
          4.278630e-01 1.358671e-02 0.000000e+00
          4.384349e-01 1.237020e-02 0.000000e+00
          4.490035e-01 1.112383e-02 0.000000e+00
          4.595684e-01 9.847207e-03 0.000000e+00
          4.701295e-01 8.539758e-03 0.000000e+00
          4.806867e-01 7.200780e-03 0.000000e+00
          4.912397e-01 5.829447e-03 0.000000e+00
          5.017883e-01 4.424788e-03 0.000000e+00
          5.123323e-01 2.985707e-03 0.000000e+00
          5.228714e-01 1.510975e-03 0.000000e+00
          -3.162395e+00 -5.313751e-01 0.000000e+00
          -3.049155e+00 -1.051933e+00 0.000000e+00
          -2.862984e+00 -1.551077e+00 0.000000e+00
          -2.607672e+00 -2.018645e+00 0.000000e+00
          -2.288418e+00 -2.445119e+00 0.000000e+00
          -1.911719e+00 -2.821818e+00 0.000000e+00
          -1.485245e+00 -3.141072e+00 0.000000e+00
          -1.017677e+00 -3.396384e+00 0.000000e+00
          -5.185330e-01 -3.582555e+00 0.000000e+00
          2.024859e-03 -3.695795e+00 0.000000e+00
          -3.162395e+00 5.313751e-01 0.000000e+00
          -3.049155e+00 1.051933e+00 0.000000e+00
          -2.862984e+00 1.551077e+00 0.000000e+00
          -2.607672e+00 2.018645e+00 0.000000e+00
          -2.288418e+00 2.445119e+00 0.000000e+00
          -1.911719e+00 2.821818e+00 0.000000e+00
          -1.485245e+00 3.141072e+00 0.000000e+00
          -1.017677e+00 3.396384e+00 0.000000e+00
          -5.185330e-01 3.582555e+00 0.000000e+00
          2.024859e-03 3.695795e+00 0.000000e+00
          4.267200e+00 -3.200400e+00 0.000000e+00
          4.267200e+00 -2.667000e+00 0.000000e+00
          4.267200e+00 -2.133600e+00 0.000000e+00
          4.267200e+00 -1.600200e+00 0.000000e+00
          4.267200e+00 -1.066800e+00 0.000000e+00
          4.267200e+00 -5.334000e-01 0.000000e+00
          4.267200e+00 1.041376e-08 0.000000e+00
          4.267200e+00 5.334000e-01 0.000000e+00
          4.267200e+00 1.066800e+00 0.000000e+00
          4.267200e+00 1.600200e+00 0.000000e+00
          4.267200e+00 2.133600e+00 0.000000e+00
          4.267200e+00 2.667000e+00 0.000000e+00
          4.267200e+00 3.200400e+00 0.000000e+00
          3.733800e+00 3.733800e+00 0.000000e+00
          3.200400e+00 3.733800e+00 0.000000e+00
          2.667000e+00 3.733800e+00 0.000000e+00
          2.133600e+00 3.733800e+00 0.000000e+00
          1.600200e+00 3.733800e+00 0.000000e+00
          1.066800e+00 3.733800e+00 0.000000e+00
          3.733800e+00 -3.733800e+00 0.000000e+00
          3.200400e+00 -3.733800e+00 0.000000e+00
          2.667000e+00 -3.733800e+00 0.000000e+00
          2.133600e+00 -3.733800e+00 0.000000e+00
          1.600200e+00 -3.733800e+00 0.000000e+00
          1.066800e+00 -3.733800e+00 0.000000e+00
          4.342290e-01 2.236181e-02 0.000000e+00
          2.963457e-01 3.370866e-02 0.000000e+00
          4.342288e-01 -2.235934e-02 0.000000e+00
          2.972354e-01 -3.654075e-02 0.000000e+00
          3.827396e+00 1.350712e+00 0.000000e+00
          1.900780e+00 -3.253153e+00 0.000000e+00
          1.378485e+00 3.318460e+00 0.000000e+00
          3.818950e+00 -7.767073e-01 0.000000e+00
          3.079105e-01 -3.302894e+00 0.000000e+00
          -1.539230e-01 3.219252e+00 0.000000e+00
          -1.403615e+00 -2.617609e+00 0.000000e+00
          -1.817697e+00 2.297794e+00 0.000000e+00
          -2.558430e+00 -1.153966e+00 0.000000e+00
          -2.687114e+00 6.811607e-01 0.000000e+00
          3.785792e+00 2.743300e-01 0.000000e+00
          3.820488e+00 -1.848156e+00 0.000000e+00
          2.400300e+00 3.271862e+00 0.000000e+00
          3.813712e+00 2.399226e+00 0.000000e+00
          2.933987e+00 -3.284586e+00 0.000000e+00
          -2.290287e+00 1.613593e+00 0.000000e+00
          -2.770458e+00 -1.779223e-01 0.000000e+00
          -2.146502e+00 -1.973320e+00 0.000000e+00
          -1.042533e+00 2.901788e+00 0.000000e+00
          -6.193488e-01 -3.019405e+00 0.000000e+00
          3.747298e+00 -2.934282e+00 0.000000e+00
          3.440589e+00 3.204045e+00 0.000000e+00
          3.827204e+00 -2.755109e-01 0.000000e+00
          3.425019e+00 -5.393100e-01 0.000000e+00
          3.395320e+00 -9.620901e-01 0.000000e+00
          3.049637e+00 -7.592207e-01 0.000000e+00
          3.021259e+00 -1.139809e+00 0.000000e+00
[...]
      <CellData Scalars="scalars">
        <DataArray type="Float32" Name="rho" Format="ascii">
          1.3163058029463555 1.316484815760633 1.3203130894222446 1.315993687209555 1.3084664039693186 1.3182122741353193 1.3153638408514066 1.319594585957552 1.266366871591561 1.3335920911648462 1.349992340265107 1.3141462405096238 1.3150862102530894 1.3331054272824645 1.3180075912781444 1.2936891730328544 1.2954694876607444 1.3144554208455819 1.318170774486855 1.311658637356024 1.3175632057143305 1.312717231045286 1.3235290801635249 1.3160077024946895 1.3154391105216947 1.33606549636981 1.3157961368241244 1.3156199277884928 1.3208658621919822 1.3158128440144734 1.3160380636899203 1.3065293411955374 1.3205673139821907 1.268498897017765 1.3214625822518633 1.3156802184009144 1.3014304528391225 1.3053739436534588 1.2780308059960417 1.2705537920358758 1.346453298574616 1.3157233237331492 1.2796778683338972 1.2952213881665504 1.315039132836927 1.295040246439535 1.2757044090386664 1.3179309687313236 1.3286866532707244 1.3061510643871632 1.316189993580094 1.3203935522766286 1.312546134846547 1.322062554762439 1.316055107880388 1.3159110112529773 1.3155090487724823 1.3304290559386678 1.3009349549032092 1.3191513454660202 1.3158493906153155 1.3176053256339 1.3125707105733613 1.3465802607132278 1.3163778738794825 1.3135185709846446 1.314767011223805 1.3120275912178845 1.302471304739812 1.3163190521119605 1.3200115405791515 1.3018459785348269 1.3156778577062451 1.316545064294111 1.3182128407645946 1.3155183607629397 1.3145395974293972 1.320452683526478 1.3141956657667346 1.316000719353329 1.314959334798563 1.311505551104472 1.3171451398553025 1.3052431905015944 1.31572556863894 1.2955980967843432 1.3156721966709772 1.321468004457117 1.3192625746315325 1.3005844438656433 1.3127621863632062 1.3169575189440899 1.2586965225840747 1.3156734390682143 1.3179724661064476 1.2734778357081966 1.3167358547568226 1.319236472241402 1.315179535789746 1.3576560396363877 1.3175145892040718 1.344107325761295 1.3146214123066156 1.3166080238037043 1.3163036735571347 1.3168628255651327 1.2761676108866096 1.3165927154980164 1.3157757184922452 1.3229827418759956 1.3086013831446202 1.2932207313302297 1.3052673815110487 1.316068850694642 1.3156577161862202 1.312886108958513 1.3284449191538812 1.2690715722382995 1.3044713568968647 1.3221227749583229 1.2796642315133273 1.3129493447211265 1.2552315132591656 1.315680000524179 1.2927466765455493 1.3149711806116176 1.3174687558343368 1.2601417812513984 1.3157757667155325 1.2729799895469933 1.3236544695215193 1.3252266365839585 1.3168291052144003 1.3171571053732656 1.317379928349966 1.2851488023072999 1.3057803892280293 1.3161331774808491 1.316082111686884 1.2881270611757791 1.3159948904893484 1.3171443467706352 1.296914534472689 1.2904077079142284 1.3204518705025838 1.307537832413674 1.317224715799045 1.3144143749649797 1.3149811994705285 1.315686366393952 1.316550470439706 1.3159033779691578 1.303644873092259 1.2975369487826485 1.3248755491923567 1.329516885457008 1.2704714486590225 1.3181776015105289 1.3166688085299327 1.2829749228643672 1.3167523364988365 1.3456974499283714 1.3170757119929253 1.3128741086477629 1.2824688881239057 1.2978386471356878 1.3133202773918573 1.3167558338600027 1.3176690347329263 1.3213946229560705 1.3060253913419917 1.3156044406937228 1.3157151611650524 1.3103538316384062 1.317432368803215 1.3077628794949037 1.3151301340627657 1.3177491199487021 1.246184437816022 1.3639666202705898 1.2582263638677884 1.309385280184579 1.2957790109856169 1.310317239549431 1.31900583432293 1.3160274568693087 1.3214303593009193 1.308736187514752 1.3074916651512305 1.3163666217781942 1.2925819031185246 1.3071510476819062 1.3134879628037581 1.313662540180367 1.3000786368262014 1.3112604268549475 1.315892413642813 1.296746147619564 1.3261339536968004 1.3167500036132576 1.3138063823627915 1.315861828707413 1.3170614818959818 1.310847252174869 1.3132384547624194 1.3171940682651055 1.2786440692237533 1.3155506203925256 1.3159366957867098 1.3164975503982168 1.2866853598814283 1.316421724107255 1.3165436251776508 1.3204179878572406 1.2559201640325746 1.2988434882142972 1.2959071863700702 1.2508053018281542 1.3128787062331098 1.2770865070054556 1.2903245271877213 1.316606458935426 1.2891649960756857 1.315820508651666 1.3112351036689602 1.346428737695631 1.3161792961120142 1.3205596809961802 1.3090793338799382 1.3168627651853193 1.3179488749621588 1.3109374001934213 1.3197909357713158 1.283839636733867 1.3178927411211108 1.3020979508606645 1.3016302514606035 1.315731847955917 1.3114536607268292 1.2668409152219984 1.3484148378905507 1.3137686042499177 1.3090017991345442 1.3114536362947953 1.3155837591543862 1.2998982812704885 1.2908573201811642 1.3210351509537275 1.3107194916691982 1.3159557599978562 1.309165173200653 1.2936636129474153 1.3131439773033806 1.3159995573865304 1.3135364359136386 1.3158936765274227 1.251435562104764 1.307119708898007 1.2696118931563734 1.2890506501640617 1.3146758453342766 1.312214410934159 1.3164634651834495 1.3129820027471162 1.3166235506317507 1.2854554017310809 1.316138826172584 1.3481350417646194 1.2871844961011705 1.2994769202448848 1.2805986755516645 1.3135914400263093 1.3165092018481717 1.3152145327989315 1.2690721044346525 1.315245887658502 1.3119009982549532 1.3147356098072056 1.305433255873314 1.3173736456709282 1.3167966591107119 1.2734710513262824 1.272014574762798 1.3171149020786128 1.324374898642909 1.332712649337373 1.3144242778881519 1.315567900747744 1.3182033333039256 1.3143208714828967 1.3176518407582944 1.3074909299027642 1.2985076123297488 1.3180502142333437 1.3131954264275103 1.2888839016897964 1.2991589331815923 1.3149039245352305 1.3200605102259304 1.2983172649111023 1.3008147970892197 1.2843807762301698 1.2811165426731475 1.3136919849683313 1.277243216410361 1.315711120443855 1.315811870844418 1.2913867136688044 1.314668336738491 1.2756434614972865 1.3184148353588547 1.3223839229987164 1.2771319716629017 1.313321906809374 1.3161725376115194 1.3143396571730839 1.3175106780615315 1.3154878577456652 1.297079050386587 1.2681977532318682 1.3099045836642091 1.291320997512407 1.2915524228592337 1.3093770233207993 1.296019385333312 1.315692579058705 1.2612841167502968 1.3149032173559547 1.3189711230010799 1.3156134611237138 1.3166769213765843 1.315714933848598 1.3158516944943053 1.3171663752246834 1.3112397978388266 1.3242107605013427 1.2846318053609274 1.320564453980299 1.2895654498843445 1.321300149902276 1.315791382298927 1.316341542698987 1.3166016108138 1.3155704027201789 1.3183948069876033 1.311834405900698 1.3183804782129052 1.3030652598079489 1.3179822972226014 1.3051309610475381 1.3029168405626346 1.3143940646781644 1.2985871513857417 1.312468393598319 1.3135241073750052 1.3120943224163646 1.3112042689063863 1.371890293283473 1.3167097405979058 1.2987981972513172 1.3130432751206735 1.3159357489390027 1.3254281296675186 1.3143573695935342 1.3159295367397106 1.3166247038649639 1.3168728104943968 1.3278189385029002 1.3186295077607944 1.3225765314290125 1.3115685693961694 1.3159398535102145 1.3791182448269093 1.3176041836229422 1.3158435546696121 1.313197617767417 1.2933918962123274 1.2903751386222941 1.315437221853095 1.3138281863503516 1.3050603122587925 1.2717819653440223 1.3137919178350053 1.281826673516191 1.3005302603530913 1.3141632710308195 1.3029227017719862 1.3138852665830874 1.3159564816882303 1.3159898699841261 1.315764614152601 1.3176123828466657 1.3096122852249112 1.3763729374789497 1.3145424770887393 1.321537515863389 1.3141538085019042 1.3040850755567686 1.3143894646015015 1.3163903970038107 1.31235069397212 1.3207599037046907 1.3117550236930058 1.3155346225898865 1.3070635855958201 1.2982077541144836 1.2805006584973833 1.3156758555936094 1.3321585043523143 1.3141107494939541 1.2965622724145114 1.3124829812048455 1.3133283850748219 1.3158813279480297 1.3172365122489111 1.31413368755298 1.3168106865912217 1.315243105250916 1.3166480710740767 1.33937532855422 1.3157009843500485 1.3289284434379076 1.3173980725562886 1.2701803331546375 1.316552934023725 1.315707815713858 1.3157838337450607 1.3283138843244011 1.3133946648922805 1.3179120653305691 1.3154659214894915 1.2949709585640676 1.318287829197133 1.3180386181915837 1.3119590843050937 1.3158687211896856 1.3183605274164207 1.3160602578106726 1.3160284776657185 1.3163787282837685 1.3158516123035704 1.3133735594340004 1.3157141431724557 1.2945750379365373 1.3184747618229815 1.3158865146013206 1.2991704934605153 1.314536481289292 1.2716638880247595 1.3157071365112076 1.3197160198613571 1.3175544574793296 1.3122850397158412 1.293982291509201 1.2968402668597707 1.3122663270875532 1.3128187379784715 1.3141874305321595 1.2896739221875877 1.3181543820012536 1.2901264654581566 1.3176193641517175 1.319030083228507 1.3154528414157147 1.3118172222997937 1.3145108802758358 1.2883824835176672 1.3177472358694804 1.3163080459265768 1.3178905103422272 1.3155225053387416 1.3158538771205737 1.2877344731322442 1.3096345820559139 1.2908349511169241 1.3135655212900572 1.3156103266313874 1.317108526420385 1.2646363357458612 1.3151475259042311 1.298860486130903 1.3148572182990244 1.3154076069685574 1.3132768700419297 1.2940201136685983 1.3179473319140858 1.3159432758557292 1.3156462960870614 1.3132410449660707 1.338677964418344 1.2941966177736985 1.3157085897378622 1.2629864436251188 1.3160934860309639 1.2837144317776508 1.3160388184828231 1.287329146197414 1.3148037901453395 1.3145519243095163 1.3157501046409887 1.3154236287683916 1.3079409939737938 1.3078958637567544 1.318185912242739 1.3160075128119186 1.317971668375504 1.3184293870873596 1.2495276470349799 1.320720634010653 1.3154547452426113 1.31649660096919 1.3131925527787738 1.2907324473133497 1.3154123826015407 1.3159596264866114 1.3159439812546367 1.3166056249834008 1.312417001062465 1.316936002211612 1.3165634632191086 1.3157040967876727 1.3120854974806408 1.3107210175656114 1.3022637705859301 1.3069763492774102 1.3115524550783648 1.2934886972957012 1.2689898490607672 1.3152559526094774 1.3154578493711033 1.3041264760102582 1.3093440985350666 1.31538564066858 1.2672287643410045 1.3170472330135807 1.3163008523392237 1.322231201439164 1.3164129923606391 1.3195710154571572 1.3152808827373137 1.3075570122863838 1.3164253855356152 1.3161443144613416 1.3178694602042722 1.3155687426934672 1.3193873724101897 1.325881630565109 1.3157170833933671 1.3161312321359124 1.315726295991889 1.333395988053525 1.3159641935532829 1.3183988695282045 1.313284332925211 1.3140631644199554 1.315474153335898 1.3149946899353782 1.2746376337022975 1.3161139014277892 1.3063667845866767 1.315635124063575 1.3164988462156568 1.3148202282749881 1.315535207576775 1.3173628821475274 1.2817657197769308 1.3160070294773296 1.3189787477341008 1.3155960787394787 1.3375735212212003 1.3149788839555954 1.3159340793491865 1.2983048446464245 1.3151402147062548 1.319126938896576 1.3191759268019998 1.3167151693442731 1.3165214105754273 1.319693705768133 1.322763336330998 1.3158557498544732 1.3198639375140935 1.3103936006944594 1.3007890670041724 1.3137991989682651 1.3188761022842928 1.330354303513622 1.3138733590283664 1.31592198924144 1.2910886318498602 1.27542495071243 1.3144744623870777 1.3255575573835208 1.3128651048585203 1.3048572857336236 1.3237150348426017 1.3178304029960635 1.316341138503609 1.2837031180206984 1.3156873872830896 1.3157806929205997 1.3132218284893267 1.3124947009472518 1.2945352315475804 1.3180750407628523 1.3030107871699539 1.2394899235881498 1.3489691344843284 1.312950420645667 1.317871302153131 1.315867490981282 1.2910470365316344 1.28258357750658 1.2377595029594166 1.3682865208355197 1.3160496394819048 1.3165815116414743 1.3134431424784172 1.3196150537631546 1.2915240952811327 1.302485012898176 1.3134556225729705 1.3202139330494893 1.3181853731246227 1.3182459847760801 1.3180437122132256 1.306326110510419 1.3134501795419282 1.3103280974749927 1.3142729242435722 1.3145944324928995 1.3165636678229649 1.3147234898833184 1.3156894858905963 1.318184896034662 1.3154802379036177 1.318779428569835 1.316547796083974 1.3158527197008627 1.316049587127283 1.3273547526106035 1.3159987526349541 1.3196920650406219 1.315996258097765 1.318732054340214 1.3004765116788808 1.3164567027495195 1.3119151249501324 1.3075983384472096 1.320736666166212 1.3165349414605478 1.2732507118912955 1.3190400643233025 1.3154860600883964 1.3305659747714589 1.3167397531998637 1.3069414422621852 1.3185331791442592 1.3096327283343698 1.3177656519857859 1.3155816457343723 1.3180670035919533 1.3155561164572236 1.3118967340619745 1.3152734867331735 1.344224540294222 1.3161954374051696 1.3164024079567065 1.2590150395183142 1.3164135911732608 1.312276199230256 1.2893900819588426 1.3091567048795334 1.3154163309628075 1.3151393106345166 1.318654266512164 1.240801366496722 1.3164554965606616 1.3178447246761018 1.31348048663292 1.3159355198436349 1.3146576914985504 1.3140411499499096 1.315159843113824 1.3032802084028925 1.3153028775159465 1.3163288353609954 1.3156452012288113 1.315374009372023 1.3161669481435792 1.3158822870662348 1.3157794195328552 1.3193717590986276 1.3157497589688605 1.315897819242678 1.3112588557330778 1.3218240861594146 1.316055957439704 1.315436144680319 1.2869988762508557 1.2540258876673078 1.3160974193644617 1.2707827706141384 1.3080848249848662 1.3155766556944593 1.2874618380795926 1.3162310147778113 1.3165847875787984 1.315122066431782 1.2973310819330777 1.3168422045221797 1.31291924107147 1.3164375489921127 1.3089003128274306 1.3208914171907036 1.3162990369095946 1.3166719186151106 1.302323788987532 1.3161624046551639 1.3138830337314014 1.3199544625886992 1.3125206257836601 1.3157727191577766 1.3124588025878052 1.3154028404682894 1.3181199675410873 1.3138039218580848 1.3145553633103197 1.3156376597934867 1.3178040442748533 1.371411897512786 1.2734430405624153 1.315006215866981 1.3126517919831313 1.3177808929668282 1.3166133007663312 1.3157027607660952 1.2946793147730695 1.3007001955800856 1.3164036592253672 1.3146437599813219 1.317047034901136 1.3136207382308605 1.2914404201690628 1.318723392728921 1.3160769886227661 1.3167273962328683 1.3151072244786028 1.3170167854212387 1.288645823242767 1.309198485260165 1.3174821576123947 1.3151054420494008 1.3148350687528243 1.2852744529962212 1.3156884750400062 1.315418744806697 1.3152487248815024 1.3137786047515452 1.2939130835767838 1.315705869065897 1.3261292356524848 1.298421952007779 1.301036116129423 1.3035346405945365 1.3107628994129572 1.3163926779189765 1.3157725307488688 1.3161740802249378 1.2663647365549926 1.3314765122529808 1.3168480048143942 1.3157071062510335 1.3165495737905435 1.3183874130502218 1.3047790145480411 1.3190137130265076 1.318079928369947 1.3167266702036178 1.3160507408752307 1.314872831363057 1.3162869812053168 1.2825161156029912 1.3177198862639994 1.3161770429435484 1.3122849727206256 1.2751101506530023 1.316705953701562 1.314982909061911 1.315380442662064 1.2977148856589462 1.3154647222121187 1.3148731291049236 1.3157541333454976 1.3039122398991279 1.3143859254517196 1.3149057756915594 1.2796067575185202 1.314670130497197 1.3153581769749392 1.2997816021035475 1.3172914028371665 1.3042315492771446 1.316261656985067 1.3191317138053715 1.3117282033914306 1.3137395981071833 1.2728002154083145 1.3158702897187378 1.3082113838100184 1.3249467621146829 1.3185967245211476 1.3159892571190552 1.3002005351115893 1.3112165257411807 1.327514340681568 1.3156813309313735 1.3158502591591734 1.3154830086476557 1.3153566030972847 1.3286638244901456 1.3145141748075477 1.3178987701190514 1.3104110101648045 1.2577533976523325 1.2808431473071533 1.3153548646072204 1.3161283529512884 1.3215966802414618 1.3097432329859586 1.3181052420844819 1.3129039993299216 1.3143923044808163 1.3166226841728208 1.317941550775592 1.3167220230188084 1.237726141298554 1.3161446974393904 1.3164909095165729 1.3174774790844348 1.3153879152847974 1.3213655523870242 1.3162216375442617 1.3170008289470359 1.3157700786138318 1.3153317044547839 1.3160623687760629 1.3163612875867001 1.3411889080571804 1.323541286447009 1.3158277314521403 1.2780821805250486 1.3114682703200777 1.2511377947102071 1.3155923557481781 1.234406020147689 1.3508137325938534 1.314443238979467 1.3068066960556712 1.3166079054546012 1.3176402073129043 1.3129237417694057 1.3166476599801296 1.3191220380685797 1.3250255244078277 1.3155475701889259 1.3153270564329596 1.318924774605086 1.316511746066766 1.2965192968329093 1.3161310450310086 1.3154518566534936 1.3162840221817753 1.3115632652870555 1.2802281243616724 1.3206429215713589 1.2825260773218357 1.3164449567181864 1.315596209383263 1.3156886336494755 1.3164805023368078 1.3139504503301425 1.242842938061998 1.3131399196304079 1.316438338829174 1.3295126216916855 1.315013749192658 1.319857694977963 1.3143533607020073 1.2398281920553043 1.3465958267567382 1.3154158952853312 1.2936305469007054 1.3182858409724103 1.3139570008208747 1.3117218486075921 1.3166515603412179 1.30575479012373 1.3161020158051455 1.315921789895548 1.3172231692519238 1.3267885334817617 1.3132273365234968 1.31375211608276 1.2976723063649411 1.3159780256208362 1.253452123624874 1.336643820159912 1.31874649935964 1.3171154256398256 1.319894558375678 1.2790776510054178 1.3158869690479384 1.3152893372151435 1.3158848673523968 1.2954414668077954 1.3158984780257628 1.3169515497662443 1.3123440300182228 1.236009342834269 1.2639889450191302 1.314017762760214 1.317197087395108 1.2988607006003787 1.315601896214505 1.3166232496758559 1.3223499528391816 1.3154336868843246 1.3437265126837634 1.2541723093208395 1.3640479976936513 1.3075300788499993 1.3196194134438999 1.310982363006016 1.3126133077219972 1.3134534119894195 1.2735085507400405 1.3184766857660843 1.338513153854023 1.3095457169993487 1.3183762262468768 1.318042822544843 1.3153521152049334 1.3162067426271724 1.3147574088705458 1.3185224243272171 1.3169800986022475 1.315257893725637 1.268468879572763 1.3166823542384147 1.316330540160975 1.3176541245910967 1.319774367119954 1.3149874380543618 1.3199165916658442 1.3167738354177043 1.2404799494568255 1.3219019202696567 1.315144572337056 1.319285863248853 1.3134843981501239 1.3163741255621488 1.316536642846027 1.286294350870215 1.316634382058439 1.3152813988212537 1.3162018256247334 1.3158843197218058 1.2978068061022983 1.309357273623289 1.2456974936142182 1.3345629161589352 1.313272368630352 1.3128861319878387 1.3154329231458337 1.3188982839999783 1.328352228878423 1.3028052995261419 1.3153573294142045 1.3161904021543858 1.3109460047122135 1.3310437315438168 1.3158250873042894 1.3148388230181631 1.316241862724791 1.2483490954395648 1.3159300244387655 1.3153260826718411 1.3156573409585226 1.317410088756673 1.3221215638562192 1.3162009406269073 1.3152623119143136 1.3163095522100081 1.3155520713832642 1.316369157594004 1.3163576215204849 1.3155531269441687 1.3158856216169563 1.3165000698616813 1.3156029415827442 1.3132511858790648 1.3166484856722604 1.271557452077361 1.3170976402312877 1.3189102103862604 1.3176615039313375 1.3263431696392847 1.241826801371389 1.3289235958401804 1.2390444527378977 1.3357371085211076 1.3402348179453405 1.3452429710705307 1.2346192011068249 1.2346388970901592 1.3584096205223741 1.3773639355782206 1.2510755422577493 1.2417211276481344 1.2387130875703596 1.355167372543758 1.2411707280773467 1.3177367369184887 1.3052992405753112 1.3208416264823428 1.3025801271240063 1.3180427705331783 1.3160195248873396 1.313736846749387 1.3141405942262765 1.3151602343688207 1.3152053709250897 1.31182666408937 1.319149247418775 1.3186578277378274 1.3250008264856485 1.3155105830735745 1.3060644748664125 1.3164029334215395 1.3150894279203236 1.3166078051091874 1.3098711606654492 1.302503695115922 1.3156561575866565 1.360325454501149 1.3727992301361327 1.2571639702034199 1.3191197184814591 1.3151424274758967 1.3165076713420627 1.2958878900720538 1.3161167806558294 1.3171918624441392 1.3062609166384649 1.3163843289641755 1.315497915726264 1.331992227796179 1.323612256083262 1.3163960532085008 