<VTKFile type="UnstructuredGrid" version="0.1" byte_order="BigEndian">
  <UnstructuredGrid>
    <Piece NumberOfPoints="1431" NumberOfCells="2697">
      <Points>
        <DataArray type="Float32" NumberOfComponents="3" Format="ascii">
          5.334000e-01 0.000000e+00 0.000000e+00
          4.267200e+00 3.733800e+00 0.000000e+00
          5.334000e-01 3.733800e+00 0.000000e+00
          -3.200400e+00 0.000000e+00 0.000000e+00
          5.334000e-01 -3.733800e+00 0.000000e+00
          4.267200e+00 -3.733800e+00 0.000000e+00
          5.228714e-01 -1.510975e-03 0.000000e+00
          5.123323e-01 -2.985707e-03 0.000000e+00
          5.017883e-01 -4.424789e-03 0.000000e+00
          4.912397e-01 -5.829447e-03 0.000000e+00
          4.806867e-01 -7.200780e-03 0.000000e+00
          4.701295e-01 -8.539758e-03 0.000000e+00
          4.595684e-01 -9.847207e-03 0.000000e+00
          4.490035e-01 -1.112383e-02 0.000000e+00
          4.384349e-01 -1.237020e-02 0.000000e+00
          4.278630e-01 -1.358671e-02 0.000000e+00
          4.172876e-01 -1.477363e-02 0.000000e+00
          4.067090e-01 -1.593111e-02 0.000000e+00
          3.961272e-01 -1.705909e-02 0.000000e+00
          3.855423e-01 -1.815740e-02 0.000000e+00
          3.749543e-01 -1.922569e-02 0.000000e+00
          3.643632e-01 -2.026344e-02 0.000000e+00
          3.537692e-01 -2.126997e-02 0.000000e+00
          3.431722e-01 -2.224443e-02 0.000000e+00
          3.325722e-01 -2.318575e-02 0.000000e+00
          3.219691e-01 -2.409272e-02 0.000000e+00
          3.113631e-01 -2.496390e-02 0.000000e+00
          3.007541e-01 -2.579765e-02 0.000000e+00
          2.901420e-01 -2.659211e-02 0.000000e+00
          2.795269e-01 -2.734517e-02 0.000000e+00
          2.689089e-01 -2.805452e-02 0.000000e+00
          2.582878e-01 -2.871753e-02 0.000000e+00
          2.476638e-01 -2.933132e-02 0.000000e+00
          2.370368e-01 -2.989269e-02 0.000000e+00
          2.264071e-01 -3.039811e-02 0.000000e+00
          2.157747e-01 -3.084366e-02 0.000000e+00
          2.051398e-01 -3.122503e-02 0.000000e+00
          1.945027e-01 -3.153742e-02 0.000000e+00
          1.838636e-01 -3.177553e-02 0.000000e+00
          1.732231e-01 -3.193342e-02 0.000000e+00
          1.625816e-01 -3.200445e-02 0.000000e+00
          1.519399e-01 -3.198116e-02 0.000000e+00
          1.412989e-01 -3.185504e-02 0.000000e+00
          1.306599e-01 -3.161639e-02 0.000000e+00
          1.200244e-01 -3.125392e-02 0.000000e+00
          1.093945e-01 -3.075441e-02 0.000000e+00
          9.877283e-02 -3.010202e-02 0.000000e+00
          8.816318e-02 -2.927745e-02 0.000000e+00
          7.757071e-02 -2.825657e-02 0.000000e+00
          6.705421e-02 -2.701490e-02 0.000000e+00
          5.862861e-02 -2.582654e-02 0.000000e+00
          5.263795e-02 -2.485856e-02 0.000000e+00
          4.740140e-02 -2.391548e-02 0.000000e+00
          4.218387e-02 -2.287234e-02 0.000000e+00
          3.699060e-02 -2.171459e-02 0.000000e+00
          3.182898e-02 -2.042326e-02 0.000000e+00
          2.670989e-02 -1.897277e-02 0.000000e+00
          2.165028e-02 -1.732728e-02 0.000000e+00
          1.667839e-02 -1.543401e-02 0.000000e+00
          1.184603e-02 -1.321029e-02 0.000000e+00
          7.261188e-03 -1.051686e-02 0.000000e+00
          3.192043e-03 -7.105264e-03 0.000000e+00
          4.144512e-04 -2.617250e-03 0.000000e+00
          4.143411e-04 2.616907e-03 0.000000e+00
          3.191798e-03 7.105000e-03 0.000000e+00
          7.260890e-03 1.051666e-02 0.000000e+00
          1.184571e-02 1.321013e-02 0.000000e+00
          1.667806e-02 1.543387e-02 0.000000e+00
          2.164994e-02 1.732716e-02 0.000000e+00
          2.670955e-02 1.897266e-02 0.000000e+00
          3.182863e-02 2.042316e-02 0.000000e+00
          3.699024e-02 2.171451e-02 0.000000e+00
          4.218351e-02 2.287227e-02 0.000000e+00
          4.740104e-02 2.391541e-02 0.000000e+00
          5.263760e-02 2.485850e-02 0.000000e+00
          5.862818e-02 2.582647e-02 0.000000e+00
          6.705398e-02 2.701487e-02 0.000000e+00
          7.757072e-02 2.825657e-02 0.000000e+00
          8.816318e-02 2.927745e-02 0.000000e+00
          9.877283e-02 3.010202e-02 0.000000e+00
          1.093945e-01 3.075441e-02 0.000000e+00
          1.200244e-01 3.125392e-02 0.000000e+00
          1.306599e-01 3.161639e-02 0.000000e+00
          1.412989e-01 3.185504e-02 0.000000e+00
          1.519399e-01 3.198116e-02 0.000000e+00
          1.625816e-01 3.200445e-02 0.000000e+00
          1.732231e-01 3.193342e-02 0.000000e+00
          1.838636e-01 3.177553e-02 0.000000e+00
          1.945027e-01 3.153742e-02 0.000000e+00
          2.051398e-01 3.122503e-02 0.000000e+00
          2.157747e-01 3.084366e-02 0.000000e+00
          2.264071e-01 3.039810e-02 0.000000e+00
          2.370368e-01 2.989269e-02 0.000000e+00
          2.476638e-01 2.933132e-02 0.000000e+00
          2.582878e-01 2.871753e-02 0.000000e+00
          2.689089e-01 2.805452e-02 0.000000e+00
          2.795269e-01 2.734517e-02 0.000000e+00
          2.901420e-01 2.659211e-02 0.000000e+00
          3.007541e-01 2.579765e-02 0.000000e+00
          3.113631e-01 2.496390e-02 0.000000e+00
          3.219691e-01 2.409272e-02 0.000000e+00
          3.325722e-01 2.318575e-02 0.000000e+00
          3.431722e-01 2.224443e-02 0.000000e+00
          3.537692e-01 2.126997e-02 0.000000e+00
          3.643632e-01 2.026344e-02 0.000000e+00
          3.749543e-01 1.922569e-02 0.000000e+00
          3.855423e-01 1.815740e-02 0.000000e+00
          3.961272e-01 1.705909e-02 0.000000e+00
          4.067090e-01 1.593111e-02 0.000000e+00
          4.172876e-01 1.477363e-02 0.000000e+00
          4.278630e-01 1.358671e-02 0.000000e+00
          4.384349e-01 1.237020e-02 0.000000e+00
          4.490035e-01 1.112383e-02 0.000000e+00
          4.595684e-01 9.847207e-03 0.000000e+00
          4.701295e-01 8.539758e-03 0.000000e+00
          4.806867e-01 7.200780e-03 0.000000e+00
          4.912397e-01 5.829447e-03 0.000000e+00
          5.017883e-01 4.424788e-03 0.000000e+00
          5.123323e-01 2.985707e-03 0.000000e+00
          5.228714e-01 1.510975e-03 0.000000e+00
          -3.162395e+00 -5.313751e-01 0.000000e+00
          -3.049155e+00 -1.051933e+00 0.000000e+00
          -2.862984e+00 -1.551077e+00 0.000000e+00
          -2.607672e+00 -2.018645e+00 0.000000e+00
          -2.288418e+00 -2.445119e+00 0.000000e+00
          -1.911719e+00 -2.821818e+00 0.000000e+00
          -1.485245e+00 -3.141072e+00 0.000000e+00
          -1.017677e+00 -3.396384e+00 0.000000e+00
          -5.185330e-01 -3.582555e+00 0.000000e+00
          2.024859e-03 -3.695795e+00 0.000000e+00
          -3.162395e+00 5.313751e-01 0.000000e+00
          -3.049155e+00 1.051933e+00 0.000000e+00
          -2.862984e+00 1.551077e+00 0.000000e+00
          -2.607672e+00 2.018645e+00 0.000000e+00
          -2.288418e+00 2.445119e+00 0.000000e+00
          -1.911719e+00 2.821818e+00 0.000000e+00
          -1.485245e+00 3.141072e+00 0.000000e+00
          -1.017677e+00 3.396384e+00 0.000000e+00
          -5.185330e-01 3.582555e+00 0.000000e+00
          2.024859e-03 3.695795e+00 0.000000e+00
          4.267200e+00 -3.200400e+00 0.000000e+00
          4.267200e+00 -2.667000e+00 0.000000e+00
          4.267200e+00 -2.133600e+00 0.000000e+00
          4.267200e+00 -1.600200e+00 0.000000e+00
          4.267200e+00 -1.066800e+00 0.000000e+00
          4.267200e+00 -5.334000e-01 0.000000e+00
          4.267200e+00 1.041376e-08 0.000000e+00
          4.267200e+00 5.334000e-01 0.000000e+00
          4.267200e+00 1.066800e+00 0.000000e+00
          4.267200e+00 1.600200e+00 0.000000e+00
          4.267200e+00 2.133600e+00 0.000000e+00
          4.267200e+00 2.667000e+00 0.000000e+00
          4.267200e+00 3.200400e+00 0.000000e+00
          3.733800e+00 3.733800e+00 0.000000e+00
          3.200400e+00 3.733800e+00 0.000000e+00
          2.667000e+00 3.733800e+00 0.000000e+00
          2.133600e+00 3.733800e+00 0.000000e+00
          1.600200e+00 3.733800e+00 0.000000e+00
          1.066800e+00 3.733800e+00 0.000000e+00
          3.733800e+00 -3.733800e+00 0.000000e+00
          3.200400e+00 -3.733800e+00 0.000000e+00
          2.667000e+00 -3.733800e+00 0.000000e+00
          2.133600e+00 -3.733800e+00 0.000000e+00
          1.600200e+00 -3.733800e+00 0.000000e+00
          1.066800e+00 -3.733800e+00 0.000000e+00
          4.342290e-01 2.236181e-02 0.000000e+00
          2.963457e-01 3.370866e-02 0.000000e+00
          4.342288e-01 -2.235934e-02 0.000000e+00
          2.972354e-01 -3.654075e-02 0.000000e+00
          3.827396e+00 1.350712e+00 0.000000e+00
          1.900780e+00 -3.253153e+00 0.000000e+00
          1.378485e+00 3.318460e+00 0.000000e+00
          3.818950e+00 -7.767073e-01 0.000000e+00
          3.079105e-01 -3.302894e+00 0.000000e+00
          -1.539230e-01 3.219252e+00 0.000000e+00
          -1.403615e+00 -2.617609e+00 0.000000e+00
          -1.817697e+00 2.297794e+00 0.000000e+00
          -2.558430e+00 -1.153966e+00 0.000000e+00
          -2.687114e+00 6.811607e-01 0.000000e+00
          3.785792e+00 2.743300e-01 0.000000e+00
          3.820488e+00 -1.848156e+00 0.000000e+00
          2.400300e+00 3.271862e+00 0.000000e+00
          3.813712e+00 2.399226e+00 0.000000e+00
          2.933987e+00 -3.284586e+00 0.000000e+00
          -2.290287e+00 1.613593e+00 0.000000e+00
          -2.770458e+00 -1.779223e-01 0.000000e+00
          -2.146502e+00 -1.973320e+00 0.000000e+00
          -1.042533e+00 2.901788e+00 0.000000e+00
          -6.193488e-01 -3.019405e+00 0.000000e+00
          3.747298e+00 -2.934282e+00 0.000000e+00
          3.440589e+00 3.204045e+00 0.000000e+00
          3.827204e+00 -2.755109e-01 0.000000e+00
          3.425019e+00 -5.393100e-01 0.000000e+00
          3.395320e+00 -9.620901e-01 0.000000e+00
          3.049637e+00 -7.592207e-01 0.000000e+00
          3.021259e+00 -1.139809e+00 0.000000e+00
[...]
      <CellData Scalars="scalars">
        <DataArray type="Float32" Name="rho" Format="ascii">
          1.3132235372123462 1.3170204350941985 1.3185840059570093 1.3170751634324522 1.3108031384773076 1.318352008910642 1.3159383416065806 1.3191298855357876 1.2786264236435876 1.334611751067566 1.347460147491601 1.314659059018495 1.3153631921399864 1.3310457583586908 1.3182267981865672 1.2971053244123343 1.3027793106521808 1.3148353670442874 1.3183167047013784 1.3102723194158161 1.3182139151829466 1.3106939941118243 1.323668732008505 1.3168893641731194 1.3155957705788035 1.3328494372837745 1.3166367676603135 1.3156665929952747 1.3212423713756685 1.315832675782145 1.31681795833138 1.308002481766607 1.3200865955347836 1.278389661249296 1.3224225304876907 1.3159179616798784 1.3042576870902316 1.306822456296131 1.2905749924127896 1.280051457424247 1.3413666428405246 1.316417344806673 1.2860412449015712 1.298155276828742 1.3153100522935846 1.2991782381750028 1.2873659776345525 1.318218710673038 1.3247723736543813 1.30757092631996 1.3170821904705659 1.3214839784930366 1.309826781249185 1.3219537307437814 1.3168772749402187 1.317197620896753 1.3162996890419218 1.3306091245045162 1.303032061209237 1.3180443964179085 1.3158223495441503 1.3181937422958947 1.3113001492533467 1.349048071392394 1.3172482315607736 1.3107563759736578 1.3157787467022188 1.3106367054630377 1.3050510433758002 1.3171895108754346 1.3196576075458863 1.303749476868765 1.3159609139164639 1.3172520981636582 1.318313219738647 1.3163015543752576 1.3155648697108773 1.3201573591606408 1.315181113382804 1.3174410067853852 1.3159143173432746 1.3125432724999335 1.3177936259071503 1.309835714350346 1.3165326327475628 1.2997537565184223 1.316315564112726 1.3211403472574534 1.318802659211947 1.3056875849672283 1.311359245219141 1.3161544722078673 1.2716597136794427 1.316150617315588 1.3182172524505025 1.2813728410132725 1.3159642475378164 1.319480274510175 1.3141701017483085 1.3619793050368094 1.316737742307682 1.3474702977154958 1.3136347262000563 1.314180917087496 1.315215119487167 1.317588330502335 1.286750760366842 1.317576101865934 1.3158920559359166 1.3229369410542262 1.3098595458895523 1.2968330237107393 1.307766780435608 1.317005721000738 1.3147968981290612 1.3112139202461301 1.3232761246080598 1.2806809014510228 1.307129060877337 1.3226572399545613 1.2861175509741982 1.3139475548748247 1.2710911002855543 1.3159436423731221 1.296303094216681 1.3126048643259132 1.317626779003362 1.2716361582025766 1.3159956067626069 1.2817246978628443 1.3237412911725868 1.3238027530586278 1.3160468814916915 1.3177864512836408 1.3166384585866042 1.2905104895764277 1.307062590545279 1.317029394321717 1.31728256223791 1.299139768048998 1.3170857250630903 1.3164247725647997 1.3026170313231038 1.294744948480382 1.3185413444320795 1.3089791538387374 1.316513109911684 1.3154498777223065 1.3140100531052195 1.316129841459795 1.3175166082740544 1.3167180734993487 1.311304647599052 1.3004298940852828 1.3254396665147605 1.3304861991542534 1.2805990912989365 1.3184846532826975 1.3159069683770062 1.2889850374999268 1.317462794020186 1.3442084534412582 1.317413712456989 1.3116029308303594 1.2888922654009383 1.3005564912591019 1.3119793712573227 1.3176541206841519 1.3145965046195844 1.3223192943157143 1.3084840416136692 1.3146351931793903 1.3162518006433774 1.3115625787415772 1.3175460732375084 1.3099417598261718 1.3130131779647534 1.3170434036173988 1.2663658678434002 1.3581580087127454 1.2708075033706139 1.3112575907157327 1.3007040863573156 1.31199160825419 1.3177954197811323 1.3155297286344663 1.3197559534497263 1.3107153476716191 1.3099825375629996 1.3191348837189965 1.2985389146681035 1.3094032582866018 1.3144901712191395 1.3122892344637511 1.3036788933691739 1.3125841952847657 1.3174128995325887 1.2999569450234836 1.3249723975489631 1.317430043604953 1.3147792828554505 1.314895856925835 1.3177332480448216 1.3124123255929474 1.3103474841057388 1.3193488821493293 1.2863915130182202 1.316383027844148 1.3171071698364758 1.3172885806367758 1.2913847500533544 1.317515149307868 1.3175680428183802 1.3212410658077895 1.2684615324115276 1.3025390734837756 1.2992770386187091 1.2647903804254435 1.3138891343168932 1.2854562888364955 1.2949322753958568 1.3175922704132195 1.2940125025570088 1.315927959579106 1.3127489257732363 1.3515674806670603 1.3157409806419365 1.321551634054319 1.3103479395467545 1.3176076410693853 1.3185008640458407 1.3094062983337182 1.3200976050598712 1.2899872862327129 1.3171882076904857 1.3049180221457584 1.304931313761899 1.3159540807204047 1.3129732940915813 1.2765010873635918 1.3435462672287037 1.3123040230983578 1.3107025227956468 1.3128547349256978 1.3166261268341515 1.3025491318053295 1.296549420857744 1.3205500093235576 1.3123358654023969 1.3170063477293694 1.3107713391487208 1.2975765105008046 1.3111710523491997 1.3169279873792021 1.3119220381133971 1.3169395456896222 1.2660305094687623 1.311672622100154 1.278924442119744 1.2950663940731801 1.3149349691920649 1.313609973283186 1.317481999959232 1.311818009519964 1.3173459800401714 1.290594524673361 1.315575379600277 1.347371573568198 1.2925809097769496 1.305800014772509 1.2875849739280087 1.312460200372347 1.3172156763089973 1.315839174074234 1.2776815461440414 1.3143967633100688 1.3105588310097316 1.3156215110431295 1.306750585459721 1.317921558038599 1.3146957215631743 1.2825394818491738 1.2806256940316743 1.317809728631614 1.324599920924873 1.3334390870531512 1.3119067179313066 1.3164637512946027 1.3171800554136752 1.3131179428298787 1.3167463021932782 1.308782398499099 1.3026101176581681 1.3172037973494743 1.3117439142234417 1.2934515477922204 1.3014010963062024 1.315759941212193 1.319633014958996 1.3011819219880743 1.306245598206622 1.305204786018838 1.287432108297433 1.314735990960979 1.285014694320251 1.316424218293473 1.3172122739382661 1.2954516467049995 1.313466712108336 1.2840196905010923 1.3184252597351231 1.3220986175568104 1.2881637446658538 1.3141750305101 1.3157609505893155 1.312678127826657 1.3180003063825843 1.3161087316665803 1.2998354878481422 1.2769099072426982 1.3110188910572373 1.2971028419681991 1.2958152219904768 1.3114701062212355 1.2988435089310926 1.3164559534080464 1.2728731354322727 1.315709795764312 1.3192605453948685 1.3155937759717948 1.3173357726207777 1.3161576128004184 1.3159131361870464 1.3177864579467917 1.3128717336032152 1.3190985994887374 1.2904774226156948 1.3194057298155808 1.2935889443575672 1.3210532944462527 1.3166922598782205 1.3155815299056959 1.3174280881957459 1.316208928620574 1.3179385663215712 1.3128810269777942 1.3179278509384365 1.30619106835574 1.3180481095161785 1.3065396607438693 1.3048744137611428 1.315254372772951 1.301275818031496 1.3107350069693122 1.3145311168459342 1.3131442620585134 1.309654720594492 1.3740972887142542 1.317464158419973 1.3013199619091624 1.314110779233559 1.315711458877548 1.321921884181319 1.3148255070896024 1.316912502527181 1.3202650305309211 1.3175610360126155 1.324164517010841 1.317665713817818 1.3226871264530502 1.3151174026169026 1.315709462549057 1.381134529144202 1.3180324032488597 1.316848201811463 1.3110010568453272 1.3002801718144763 1.2945153672890497 1.3162348989179293 1.3147759320453465 1.3068170611037195 1.2798183926917046 1.3147334976027616 1.2875664010089831 1.3043326100898662 1.3150941475541635 1.3088188884131726 1.3144941055154282 1.3167716183082325 1.3169318832040544 1.3166894661185053 1.3169588970612331 1.3110898765562233 1.3794572767327766 1.3153794798668403 1.321465850009224 1.3150686032510306 1.3058519113066427 1.3152765461304814 1.3155737661585327 1.3109281360105784 1.3211362937112332 1.312976924648199 1.3161018413851207 1.3091860136736844 1.3027149710024442 1.2873598033843554 1.3163262210238043 1.3318002428308138 1.3130448851084602 1.2995363305120646 1.3136633250192953 1.3141664458561495 1.3168450301610095 1.3148766386959545 1.313158282998219 1.3175829833332433 1.3160258607892152 1.3140290476022705 1.345664276539272 1.3162769399922962 1.3258807108017883 1.3179357419655884 1.279004332031112 1.315704565622312 1.316429362051213 1.3167453474488282 1.326972169734551 1.3143833737170083 1.3184295027123314 1.3170854485187438 1.2981292579691228 1.318337911380228 1.3185579663607223 1.3132386296864653 1.3158569341636155 1.3178060786802364 1.3157106865455113 1.3171583907622553 1.315466490996517 1.3170208056685344 1.3121629184707067 1.3164766101981624 1.3009716058666325 1.3189129662200907 1.3156943934726542 1.3052113845374915 1.3148638181231904 1.2795735738861014 1.317351552611949 1.3200572305654177 1.3176223360761465 1.3109849789910588 1.2996161062478933 1.3019361160466716 1.3137116703416498 1.3138996770880744 1.3128560151137645 1.2939570109666518 1.3183103514407513 1.2941231780658196 1.318060641942119 1.3189041359024594 1.3172972989133496 1.3100188896181004 1.3135395702536568 1.2928762448915505 1.3181304121957194 1.3172751856429494 1.314649711991348 1.3161398723373068 1.3168226379294392 1.292394955354867 1.3111887730806144 1.2972338065851763 1.314581661550138 1.3164014724223796 1.3162581608689916 1.2774737664165594 1.3152296103287884 1.3011415578673637 1.315037770745119 1.3143426708987138 1.3143076877934674 1.2975766587365465 1.3181833605478757 1.3168825134098905 1.3166951485554508 1.312072208749286 1.335309682807356 1.2979022626832306 1.3165885057502236 1.273364372617124 1.3157180240114945 1.28929770548041 1.3169106053807331 1.292558931859101 1.3150304127625156 1.31524300836137 1.3167584868615878 1.316174616872037 1.309913861158185 1.3097789424843902 1.317566120395598 1.3157253675663727 1.3183301550568798 1.3184432215164583 1.2647303219843589 1.3203152993538114 1.312593485900625 1.315402847116288 1.3142111477696856 1.2946613939519067 1.3169096652131351 1.3158513475014206 1.3157052926117714 1.3168052507765575 1.3110651766288905 1.3175247172612463 1.3157218894234222 1.3172485897089947 1.313405910275291 1.3124078562505404 1.3068416598586334 1.3119516868058314 1.3128362173165102 1.298085987254225 1.2780301875952906 1.3159962757831394 1.3157923031518899 1.3060477948664653 1.3109927917973743 1.3161678215011263 1.2776197651106687 1.3177773238619985 1.315610475662994 1.3218734947903747 1.3171630102633074 1.3197894659803127 1.3160564868667541 1.30939059370941 1.3174614440715084 1.3170690799489195 1.3179381680555626 1.3158672152211004 1.3190490578085026 1.3206945170116546 1.3164177358652496 1.3157012960992343 1.3164884502742775 1.3303499053767975 1.3157949174010075 1.3185913496367707 1.3143480756395847 1.3150116069412026 1.3134028574467904 1.3141303559308928 1.2920658538797882 1.3152638830784134 1.3143088597613717 1.317170261387638 1.3175392942680733 1.3156327441747142 1.316496417911281 1.3174238632995314 1.2877362775787995 1.3169166643637604 1.3199398825535582 1.317328929595662 1.3329509772539936 1.3155436641062879 1.3170763043209046 1.3008088510734575 1.314012346731166 1.3192728915879997 1.3188458113180968 1.3174779218798451 1.3167149264963205 1.3196552203009582 1.323300374161012 1.3173524342242715 1.3172624861650128 1.3122833981133184 1.303231249323182 1.3144557530371896 1.31973291712964 1.325671059330161 1.3121419269187238 1.3167482930466008 1.2978990818257794 1.2830216358691133 1.3151229220509384 1.3208762808737151 1.3106209137941514 1.3076320602255778 1.3207102039309047 1.3181232287110607 1.317188372058521 1.289453822892631 1.3162361210607223 1.3159222279414153 1.3118543718154474 1.311305137476034 1.2976288385331438 1.3169776113256961 1.3047833519578047 1.2573631528153646 1.3424938451530568 1.3140136208770223 1.3182245408186697 1.3158000210120921 1.3021808903807834 1.2882525624378052 1.2599606393704563 1.3625388343549627 1.3157254892196308 1.3174151866085715 1.3174219816971788 1.3195024213180384 1.2953877114468624 1.3166245421893876 1.312336457074589 1.319949704315795 1.3175717401180083 1.3185071811368938 1.3182104048750054 1.3104013598334068 1.3144868863551369 1.3115549761818754 1.3148025016252358 1.3152629256559576 1.3175499600930491 1.3136799493459654 1.3164815007091726 1.3182622987786456 1.3172190390792318 1.3185875065040282 1.3157709153358859 1.3169339114799516 1.3170957892391595 1.3231648610203453 1.3164424248438111 1.3186557580056384 1.3157141499737257 1.3186573664532637 1.303137194046478 1.3157516962371512 1.3104491775819287 1.3090954274718527 1.3197470577800343 1.3173653379624268 1.2813823896617382 1.3195531252871568 1.3157704075727186 1.328652271740894 1.3155500069045005 1.3082258502205653 1.318908040456419 1.3155861635964547 1.3181167691327913 1.3163280636714527 1.3182714073729376 1.3170816473444942 1.313228352796846 1.3162713132491162 1.3393092229326338 1.3172870439947868 1.31747136413985 1.2712002302408665 1.3156398607233113 1.3106684926061598 1.2935704697343549 1.3103018018286943 1.3158361928011777 1.3152784785484606 1.3183304456512983 1.2566715782481794 1.3157239337400537 1.3183287151722747 1.3144821363304242 1.3158842395512875 1.3135628431102166 1.3146268504600325 1.315555753369496 1.30591780622019 1.3173000340157026 1.317239565547902 1.3161330326483787 1.3169942389825873 1.3157469817329743 1.315908078034212 1.316035581434429 1.3194727660639163 1.316610798081777 1.3163050991031824 1.3127388638927773 1.3230889120027685 1.3169938356393245 1.3164797375615385 1.2918106717865048 1.2682013712740041 1.3157807800260812 1.2792624809868023 1.3103095299597909 1.3159142099000063 1.2920427328649027 1.3157349603842172 1.3174911001648697 1.3155868279682426 1.3005381714869444 1.3175829893429278 1.3142149104994354 1.3173273438733153 1.310930879342564 1.321382519079974 1.3160682218151218 1.3155841709862097 1.3057310022497182 1.315521932244803 1.3144808025050403 1.3201904273447225 1.3136473989711972 1.3167958478065975 1.3135971768627939 1.317145312655812 1.3174823250336694 1.3126684147242895 1.3149022281353593 1.3163085024864212 1.318048099367766 1.3722644175414298 1.283051245407682 1.315438207390292 1.3138696943500712 1.3171697088611558 1.3176065137655428 1.316663150032898 1.2985071293483155 1.3039401328735334 1.3157042867429327 1.3149892692859686 1.3177309217824256 1.3169739245205632 1.2959492311177359 1.3186117049975081 1.3157043854042352 1.3156368489737549 1.315899725109141 1.3177419383190214 1.2938661509353766 1.3112254679899278 1.3168249914647137 1.3151451446236038 1.3153651016869703 1.2912321013201207 1.3164618698234498 1.3172610394115414 1.3157237242085351 1.3126558758255837 1.2992875637314494 1.3148404698260787 1.3263917315247749 1.3165742885147023 1.303240776819698 1.3056828378078786 1.312313383673775 1.3158162934929858 1.3168931057095579 1.3157086353940644 1.2754219872164585 1.3264946687242818 1.3171298542597578 1.3173253408630061 1.3174193575759874 1.3170828962355532 1.3065114288771724 1.3189909445791543 1.317541131138592 1.317561797003519 1.3170448247333426 1.3156009215325608 1.3165726384280507 1.2892225873060847 1.3181233635755731 1.3158014162685183 1.3110899056233876 1.2850164998912996 1.3176040748952191 1.3150744490084154 1.3164257832953183 1.3016211512145899 1.316431808585341 1.315644260687673 1.3163884058557394 1.3055512431946787 1.3122421055776214 1.3154930124616597 1.2875741026934162 1.3152282782979723 1.3164898454290368 1.30288464556611 1.3178886318770113 1.3075895448203043 1.3155649238849667 1.3190653443784515 1.3129072290287545 1.3125094672594697 1.2832554694735316 1.3156962017277725 1.310196005138203 1.3251962292956272 1.3190157229704773 1.3169914363869542 1.3042424058867987 1.3136330051581342 1.3231028073762234 1.316058692598562 1.3160094287784747 1.3165949370380394 1.3172502084331692 1.3258489827527566 1.3135579695345379 1.3183396661316238 1.3120261927101835 1.273179211210475 1.2882213326662557 1.3167291565033885 1.3158308097365425 1.3221982687477605 1.311610236473927 1.3175724128671824 1.3140292025764695 1.3153419764758265 1.316610950006799 1.318078277576296 1.3175763732791579 1.2540243763215306 1.3157239184793892 1.316536923684228 1.3179818816485565 1.3161032190377158 1.323134322221956 1.3169515073651785 1.3156320776608483 1.3168107347040414 1.316822116936062 1.315825061856319 1.3159971038692853 1.3366355334602293 1.3206681245738223 1.3173675188864502 1.2847062009050467 1.3126645051972272 1.2636376282884287 1.3163981247662473 1.2532028759736071 1.3440219908688185 1.3152675658263062 1.3087204253812006 1.31562075358344 1.3181471509706086 1.3140514327832222 1.3176199585498618 1.3201921879843133 1.3219715573859505 1.3162568018667162 1.316296864619629 1.3191731456478295 1.3174623054007326 1.2992527072756401 1.3157170921048102 1.3162267655932365 1.315822244445628 1.3101223996815323 1.2900073974948636 1.319387939719925 1.2884007288761163 1.317203521051527 1.3163390000608914 1.3173563075067025 1.3155423810900144 1.3148327110784401 1.2577713429790771 1.3145480297427412 1.3155644806815916 1.328518700332526 1.315240374305336 1.3165054069248803 1.3129061629602972 1.2563220474404626 1.3462276796144663 1.3162995829108992 1.2983375793564926 1.3177256352684652 1.3110198352077105 1.31306192340611 1.3175548730855973 1.308412248748699 1.316365151871175 1.3155921606715446 1.3165508233094025 1.3403951577152764 1.3121432674979085 1.3146962319075137 1.3001485511240463 1.3165487137961642 1.2683283829536456 1.3333182772301537 1.3185420966105705 1.317799978043213 1.3205865125271319 1.286398566387328 1.315636864079587 1.3155834804733113 1.3156119744465986 1.2987295160319572 1.316752733356465 1.3176483238734666 1.3135579122264112 1.2529935828125578 1.2743542891066784 1.3130027131980124 1.315881900630136 1.3034592419851687 1.3171523497886486 1.3155583134771047 1.3205458673206005 1.3161810037278057 1.3374403916230957 1.2733620505970344 1.3588441187032818 1.309925288527075 1.317103251844167 1.3087683929866396 1.311458324310223 1.3144031254060533 1.2810812993505558 1.3193635518313283 1.3324529243564902 1.314442758732098 1.317628969360934 1.3180840065737014 1.3152974734796106 1.3159118963044967 1.315015678749564 1.3181504713889136 1.3169901774885118 1.3140934635694956 1.279113449924807 1.3169380240211663 1.3170913179190658 1.317772555435383 1.3151515740591215 1.3157741244724197 1.3193874867085664 1.3175764124170601 1.2556933496363991 1.3219719045096763 1.3159518326580897 1.3190936825180077 1.315293402500634 1.3156613903879635 1.3165135749704882 1.2911264856386575 1.316734987780494 1.3166310973813484 1.3158173758217104 1.315689467919374 1.3029595616108531 1.3110553237603704 1.259323812693268 1.3287137024222089 1.312124664817493 1.313990841612147 1.3173177851481428 1.3187020655271704 1.3229135596013724 1.3047537581410487 1.3162267806015586 1.317131110514501 1.3123410653512415 1.3254343348040125 1.3167678723990204 1.3132054251662102 1.3161710888428624 1.2612154664623239 1.3154498563497379 1.3164637992039503 1.3164738078321463 1.3180601074580918 1.3233576906371127 1.3157657210476987 1.3162282503742129 1.31742987061014 1.3171249332386412 1.317498455561342 1.316069160192158 1.3157381413272051 1.3167264298059944 1.316485091937032 1.3172629284906148 1.3142156061818744 1.316994172577139 1.2906191926827828 1.317744290207638 1.318059729107844 1.3180790537436926 1.3209138317955584 1.2566155709246174 1.3233103143179301 1.2547511469411414 1.3296327772511378 1.3338595297199487 1.338602845284253 1.2523944676995007 1.2549228651423563 1.3517262361647446 1.3745806850597035 1.275395833872877 1.2570756319095735 1.255829833287329 1.348773346112912 1.2600485762669025 1.3179729313968402 1.3093123533825577 1.320721054265854 1.3047743253296022 1.3181848672277328 1.316901663392181 1.3147517966362097 1.314658525397521 1.3157174939044955 1.3151776423830157 1.3129352797371734 1.3189011442763012 1.3180070962049575 1.3296603192743521 1.317235035876728 1.3073574519695144 1.315609503282917 1.3158851302600938 1.3155961335703925 1.3117837673829642 1.325688857613832 1.315927859070101 1.357889425893169 1.3687948147990532 1.2784701267685732 1.318959650070243 1.3158696038007371 1.3156288673760206 1.298865821721615 1.3157689027012494 1.316282804090841 1.3089451403396468 1.3175277485099377 1.317307801205998 1.3261496511733173 1.3240533483922043 1.315887360951894 1.31307