<VTKFile type="UnstructuredGrid" version="0.1" byte_order="BigEndian">
  <UnstructuredGrid>
    <Piece NumberOfPoints="1431" NumberOfCells="2697">
      <Points>
        <DataArray type="Float32" NumberOfComponents="3" Format="ascii">
          5.334000e-01 0.000000e+00 0.000000e+00
          4.267200e+00 3.733800e+00 0.000000e+00
          5.334000e-01 3.733800e+00 0.000000e+00
          -3.200400e+00 0.000000e+00 0.000000e+00
          5.334000e-01 -3.733800e+00 0.000000e+00
          4.267200e+00 -3.733800e+00 0.000000e+00
          5.228714e-01 -1.510975e-03 0.000000e+00
          5.123323e-01 -2.985707e-03 0.000000e+00
          5.017883e-01 -4.424789e-03 0.000000e+00
          4.912397e-01 -5.829447e-03 0.000000e+00
          4.806867e-01 -7.200780e-03 0.000000e+00
          4.701295e-01 -8.539758e-03 0.000000e+00
          4.595684e-01 -9.847207e-03 0.000000e+00
          4.490035e-01 -1.112383e-02 0.000000e+00
          4.384349e-01 -1.237020e-02 0.000000e+00
          4.278630e-01 -1.358671e-02 0.000000e+00
          4.172876e-01 -1.477363e-02 0.000000e+00
          4.067090e-01 -1.593111e-02 0.000000e+00
          3.961272e-01 -1.705909e-02 0.000000e+00
          3.855423e-01 -1.815740e-02 0.000000e+00
          3.749543e-01 -1.922569e-02 0.000000e+00
          3.643632e-01 -2.026344e-02 0.000000e+00
          3.537692e-01 -2.126997e-02 0.000000e+00
          3.431722e-01 -2.224443e-02 0.000000e+00
          3.325722e-01 -2.318575e-02 0.000000e+00
          3.219691e-01 -2.409272e-02 0.000000e+00
          3.113631e-01 -2.496390e-02 0.000000e+00
          3.007541e-01 -2.579765e-02 0.000000e+00
          2.901420e-01 -2.659211e-02 0.000000e+00
          2.795269e-01 -2.734517e-02 0.000000e+00
          2.689089e-01 -2.805452e-02 0.000000e+00
          2.582878e-01 -2.871753e-02 0.000000e+00
          2.476638e-01 -2.933132e-02 0.000000e+00
          2.370368e-01 -2.989269e-02 0.000000e+00
          2.264071e-01 -3.039811e-02 0.000000e+00
          2.157747e-01 -3.084366e-02 0.000000e+00
          2.051398e-01 -3.122503e-02 0.000000e+00
          1.945027e-01 -3.153742e-02 0.000000e+00
          1.838636e-01 -3.177553e-02 0.000000e+00
          1.732231e-01 -3.193342e-02 0.000000e+00
          1.625816e-01 -3.200445e-02 0.000000e+00
          1.519399e-01 -3.198116e-02 0.000000e+00
          1.412989e-01 -3.185504e-02 0.000000e+00
          1.306599e-01 -3.161639e-02 0.000000e+00
          1.200244e-01 -3.125392e-02 0.000000e+00
          1.093945e-01 -3.075441e-02 0.000000e+00
          9.877283e-02 -3.010202e-02 0.000000e+00
          8.816318e-02 -2.927745e-02 0.000000e+00
          7.757071e-02 -2.825657e-02 0.000000e+00
          6.705421e-02 -2.701490e-02 0.000000e+00
          5.862861e-02 -2.582654e-02 0.000000e+00
          5.263795e-02 -2.485856e-02 0.000000e+00
          4.740140e-02 -2.391548e-02 0.000000e+00
          4.218387e-02 -2.287234e-02 0.000000e+00
          3.699060e-02 -2.171459e-02 0.000000e+00
          3.182898e-02 -2.042326e-02 0.000000e+00
          2.670989e-02 -1.897277e-02 0.000000e+00
          2.165028e-02 -1.732728e-02 0.000000e+00
          1.667839e-02 -1.543401e-02 0.000000e+00
          1.184603e-02 -1.321029e-02 0.000000e+00
          7.261188e-03 -1.051686e-02 0.000000e+00
          3.192043e-03 -7.105264e-03 0.000000e+00
          4.144512e-04 -2.617250e-03 0.000000e+00
          4.143411e-04 2.616907e-03 0.000000e+00
          3.191798e-03 7.105000e-03 0.000000e+00
          7.260890e-03 1.051666e-02 0.000000e+00
          1.184571e-02 1.321013e-02 0.000000e+00
          1.667806e-02 1.543387e-02 0.000000e+00
          2.164994e-02 1.732716e-02 0.000000e+00
          2.670955e-02 1.897266e-02 0.000000e+00
          3.182863e-02 2.042316e-02 0.000000e+00
          3.699024e-02 2.171451e-02 0.000000e+00
          4.218351e-02 2.287227e-02 0.000000e+00
          4.740104e-02 2.391541e-02 0.000000e+00
          5.263760e-02 2.485850e-02 0.000000e+00
          5.862818e-02 2.582647e-02 0.000000e+00
          6.705398e-02 2.701487e-02 0.000000e+00
          7.757072e-02 2.825657e-02 0.000000e+00
          8.816318e-02 2.927745e-02 0.000000e+00
          9.877283e-02 3.010202e-02 0.000000e+00
          1.093945e-01 3.075441e-02 0.000000e+00
          1.200244e-01 3.125392e-02 0.000000e+00
          1.306599e-01 3.161639e-02 0.000000e+00
          1.412989e-01 3.185504e-02 0.000000e+00
          1.519399e-01 3.198116e-02 0.000000e+00
          1.625816e-01 3.200445e-02 0.000000e+00
          1.732231e-01 3.193342e-02 0.000000e+00
          1.838636e-01 3.177553e-02 0.000000e+00
          1.945027e-01 3.153742e-02 0.000000e+00
          2.051398e-01 3.122503e-02 0.000000e+00
          2.157747e-01 3.084366e-02 0.000000e+00
          2.264071e-01 3.039810e-02 0.000000e+00
          2.370368e-01 2.989269e-02 0.000000e+00
          2.476638e-01 2.933132e-02 0.000000e+00
          2.582878e-01 2.871753e-02 0.000000e+00
          2.689089e-01 2.805452e-02 0.000000e+00
          2.795269e-01 2.734517e-02 0.000000e+00
          2.901420e-01 2.659211e-02 0.000000e+00
          3.007541e-01 2.579765e-02 0.000000e+00
          3.113631e-01 2.496390e-02 0.000000e+00
          3.219691e-01 2.409272e-02 0.000000e+00
          3.325722e-01 2.318575e-02 0.000000e+00
          3.431722e-01 2.224443e-02 0.000000e+00
          3.537692e-01 2.126997e-02 0.000000e+00
          3.643632e-01 2.026344e-02 0.000000e+00
          3.749543e-01 1.922569e-02 0.000000e+00
          3.855423e-01 1.815740e-02 0.000000e+00
          3.961272e-01 1.705909e-02 0.000000e+00
          4.067090e-01 1.593111e-02 0.000000e+00
          4.172876e-01 1.477363e-02 0.000000e+00
          4.278630e-01 1.358671e-02 0.000000e+00
          4.384349e-01 1.237020e-02 0.000000e+00
          4.490035e-01 1.112383e-02 0.000000e+00
          4.595684e-01 9.847207e-03 0.000000e+00
          4.701295e-01 8.539758e-03 0.000000e+00
          4.806867e-01 7.200780e-03 0.000000e+00
          4.912397e-01 5.829447e-03 0.000000e+00
          5.017883e-01 4.424788e-03 0.000000e+00
          5.123323e-01 2.985707e-03 0.000000e+00
          5.228714e-01 1.510975e-03 0.000000e+00
          -3.162395e+00 -5.313751e-01 0.000000e+00
          -3.049155e+00 -1.051933e+00 0.000000e+00
          -2.862984e+00 -1.551077e+00 0.000000e+00
          -2.607672e+00 -2.018645e+00 0.000000e+00
          -2.288418e+00 -2.445119e+00 0.000000e+00
          -1.911719e+00 -2.821818e+00 0.000000e+00
          -1.485245e+00 -3.141072e+00 0.000000e+00
          -1.017677e+00 -3.396384e+00 0.000000e+00
          -5.185330e-01 -3.582555e+00 0.000000e+00
          2.024859e-03 -3.695795e+00 0.000000e+00
          -3.162395e+00 5.313751e-01 0.000000e+00
          -3.049155e+00 1.051933e+00 0.000000e+00
          -2.862984e+00 1.551077e+00 0.000000e+00
          -2.607672e+00 2.018645e+00 0.000000e+00
          -2.288418e+00 2.445119e+00 0.000000e+00
          -1.911719e+00 2.821818e+00 0.000000e+00
          -1.485245e+00 3.141072e+00 0.000000e+00
          -1.017677e+00 3.396384e+00 0.000000e+00
          -5.185330e-01 3.582555e+00 0.000000e+00
          2.024859e-03 3.695795e+00 0.000000e+00
          4.267200e+00 -3.200400e+00 0.000000e+00
          4.267200e+00 -2.667000e+00 0.000000e+00
          4.267200e+00 -2.133600e+00 0.000000e+00
          4.267200e+00 -1.600200e+00 0.000000e+00
          4.267200e+00 -1.066800e+00 0.000000e+00
          4.267200e+00 -5.334000e-01 0.000000e+00
          4.267200e+00 1.041376e-08 0.000000e+00
          4.267200e+00 5.334000e-01 0.000000e+00
          4.267200e+00 1.066800e+00 0.000000e+00
          4.267200e+00 1.600200e+00 0.000000e+00
          4.267200e+00 2.133600e+00 0.000000e+00
          4.267200e+00 2.667000e+00 0.000000e+00
          4.267200e+00 3.200400e+00 0.000000e+00
          3.733800e+00 3.733800e+00 0.000000e+00
          3.200400e+00 3.733800e+00 0.000000e+00
          2.667000e+00 3.733800e+00 0.000000e+00
          2.133600e+00 3.733800e+00 0.000000e+00
          1.600200e+00 3.733800e+00 0.000000e+00
          1.066800e+00 3.733800e+00 0.000000e+00
          3.733800e+00 -3.733800e+00 0.000000e+00
          3.200400e+00 -3.733800e+00 0.000000e+00
          2.667000e+00 -3.733800e+00 0.000000e+00
          2.133600e+00 -3.733800e+00 0.000000e+00
          1.600200e+00 -3.733800e+00 0.000000e+00
          1.066800e+00 -3.733800e+00 0.000000e+00
          4.342290e-01 2.236181e-02 0.000000e+00
          2.963457e-01 3.370866e-02 0.000000e+00
          4.342288e-01 -2.235934e-02 0.000000e+00
          2.972354e-01 -3.654075e-02 0.000000e+00
          3.827396e+00 1.350712e+00 0.000000e+00
          1.900780e+00 -3.253153e+00 0.000000e+00
          1.378485e+00 3.318460e+00 0.000000e+00
          3.818950e+00 -7.767073e-01 0.000000e+00
          3.079105e-01 -3.302894e+00 0.000000e+00
          -1.539230e-01 3.219252e+00 0.000000e+00
          -1.403615e+00 -2.617609e+00 0.000000e+00
          -1.817697e+00 2.297794e+00 0.000000e+00
          -2.558430e+00 -1.153966e+00 0.000000e+00
          -2.687114e+00 6.811607e-01 0.000000e+00
          3.785792e+00 2.743300e-01 0.000000e+00
          3.820488e+00 -1.848156e+00 0.000000e+00
          2.400300e+00 3.271862e+00 0.000000e+00
          3.813712e+00 2.399226e+00 0.000000e+00
          2.933987e+00 -3.284586e+00 0.000000e+00
          -2.290287e+00 1.613593e+00 0.000000e+00
          -2.770458e+00 -1.779223e-01 0.000000e+00
          -2.146502e+00 -1.973320e+00 0.000000e+00
          -1.042533e+00 2.901788e+00 0.000000e+00
          -6.193488e-01 -3.019405e+00 0.000000e+00
          3.747298e+00 -2.934282e+00 0.000000e+00
          3.440589e+00 3.204045e+00 0.000000e+00
          3.827204e+00 -2.755109e-01 0.000000e+00
          3.425019e+00 -5.393100e-01 0.000000e+00
          3.395320e+00 -9.620901e-01 0.000000e+00
          3.049637e+00 -7.592207e-01 0.000000e+00
          3.021259e+00 -1.139809e+00 0.000000e+00
[...]
      <CellData Scalars="scalars">
        <DataArray type="Float32" Name="rho" Format="ascii">
          1.357395021801485 1.3158732036168574 1.329893404213193 1.3158732034580873 1.3158732099754642 1.3158732034580911 1.3158732034580873 1.300184123385813 1.3344923484209188 1.3837008520454188 1.38937695277794 1.3158732034580873 1.3158732034580873 1.3793895105208762 1.3158732034580873 1.2600443677695992 1.360248682745897 1.3158732034580873 1.3158732034580913 1.322611837494338 1.3149964489892785 1.350843296924412 1.3028610098217195 1.3158732293077715 1.3158732034580873 1.3787228789135413 1.3158732034580873 1.3158732034580873 1.3053486054531716 1.3158732034580873 1.3158732034580836 1.2480867813828362 1.301389938109917 1.320464885189093 1.3177511837177218 1.3158732034580873 1.3052457331917258 1.247501263409416 1.353537509769105 1.3213328510800582 1.3761009583932324 1.3158732034580873 1.285631997144668 1.256124668208228 1.3158732034580873 1.297050462311874 1.3462188328671754 1.3158732034140044 1.367278506533064 1.2473788921956568 1.3158732034580873 1.2837752875164516 1.3539390303200942 1.3020632867596258 1.3158732034580873 1.3158732034580873 1.3043182550625294 1.3541492339879144 1.2505869177807163 1.3163264450834966 1.3158732034580873 1.3154761627570433 1.318208756900925 1.398849086290226 1.3158732034580873 1.3550219278878417 1.315873205456919 1.3215828823098612 1.3001756277756182 1.3158732034580873 1.300796082299402 1.2496416854357806 1.3158732034580873 1.3158731977486542 1.3158732034580174 1.3158732034580873 1.2670347171413328 1.3012602356276508 1.3158732034693128 1.3158732034580873 1.265704197679938 1.2558355238454961 1.3158732034562297 1.3256080559316978 1.3158732034580873 1.3035773250601177 1.3158732034580873 1.30142338858362 1.300310083150633 1.3232900774450154 1.3234216525327618 1.3118165195831224 1.3272567834339881 1.3158732034580873 1.3158732034523783 1.3032175267469437 1.3031956965960625 1.3148192436607697 1.311848993394349 1.4115413013261229 1.314883891650029 1.398747945716118 1.310294717079109 1.3634584256696176 1.3191594274204343 1.3158732034580873 1.3437539745548934 1.3158732034580873 1.3158732034580873 1.3026406749446637 1.24885845103341 1.2617376880876647 1.315857969784712 1.3158732034580873 1.3042008962488316 1.3370386131485916 1.359266290939982 1.3362692073363591 1.3158017713549321 1.3164033914366824 1.2885582455030185 1.3158732034580873 1.3393234668463465 1.3158732034580873 1.2605344067222155 1.359656253361814 1.3158732034580873 1.3182952443651208 1.3158732034580873 1.3172366686308306 1.3031298463394068 1.3275999556573772 1.3089008017513626 1.3158732034578573 1.3130896602486115 1.2756687145292611 1.246697275535135 1.3158732034580873 1.3158732034580873 1.3607921642917187 1.3158732034580873 1.3027547792415421 1.3265882528771322 1.2687649132638492 1.3433632550361143 1.248350379674982 1.3044263351405054 1.315873203679295 1.3099308015614097 1.3158732034580873 1.3158732034580873 1.3158732034580873 1.372676856937791 1.257282075882396 1.300287175778659 1.3650464567943987 1.327409870376466 1.3158721618710232 1.3019978686498515 1.2852626600375443 1.315873202960855 1.390723708231668 1.315873203472105 1.3194199676927059 1.2951084385682063 1.2547817103379322 1.3230929806859673 1.3158732034580873 1.3599266633920484 1.290556877769111 1.3158710341776234 1.31120425187596 1.3158732034580873 1.2507638648558415 1.3158732034580873 1.3158731728614768 1.3554688098243808 1.3153894297795428 1.3456295871418813 1.387054365315375 1.32423386790159 1.315873203240827 1.316266568858567 1.3158732034416225 1.317442226134957 1.3158732034580873 1.3274467739967726 1.3158732003816083 1.315873208972715 1.3278467076138534 1.3229520052720922 1.315872900677645 1.2590216970037555 1.3256106564329342 1.3154950979165618 1.315456695940714 1.3158732034580873 1.262703757715652 1.3262354422119118 1.3158731993266113 1.3158732034543832 1.3132772293274195 1.3153654308728258 1.315873203457256 1.3536263597706681 1.3199370282660097 1.3164706501185006 1.3158732050933535 1.3158732034580873 1.3158732350828217 1.2690953016395963 1.3158732034580873 1.3158732034580873 1.2881770656374147 1.3188557724517862 1.3145483502173887 1.2631883894693896 1.3216993891050113 1.3158732034580873 1.3250958042545486 1.2738803881955945 1.3158732034580873 1.2756518653247237 1.3158732034580873 1.3158732034582046 1.403858078739508 1.3158732034580873 1.2847439613039813 1.2487952148059418 1.3158732034580636 1.3151993321759359 1.3265590498523943 1.3123902437224917 1.2914617227372667 1.3157921734935503 1.3112875736449106 1.315774020306438 1.3158732034580873 1.3158732034589138 1.313592518620731 1.3785169168563778 1.3326854960968297 1.3157667420642285 1.3158732034580434 1.3158732034580873 1.2593021258236132 1.3154699377314534 1.3017580806591234 1.3158732034582175 1.3158732034580873 1.3141114382424528 1.2686750638164326 1.3489094522258176 1.3158732034580873 1.3364750365203144 1.3158732034580873 1.3266584798463108 1.3324431090600701 1.316987999798026 1.3143373607695934 1.3158732034580873 1.3158732034605902 1.3158732034580873 1.3132929266253457 1.3158732034158496 1.2732543805211132 1.3158732034580873 1.3941830337738514 1.2826474738444928 1.3541576768847035 1.3038304534775502 1.3150897530961068 1.3158732026607225 1.3158732034580873 1.3054741588910712 1.3049629477304636 1.3199793567442046 1.309558423778129 1.2466383991837957 1.3158732034555545 1.3583423729410153 1.3255779096094726 1.3128422869548664 1.3158732034580873 1.3030038360824656 1.3058661324760878 1.3582953178954456 1.3158732034580873 1.316325569656284 1.3198722419647773 1.3162127826630674 1.2476025511457172 1.315717233615061 1.3160476977725177 1.3305124204060825 1.270717531996428 1.2512714547431258 1.3133515997332272 1.30030998043211 1.259335782733565 1.3307204834753286 1.3836052691665375 1.288789112809122 1.315873203459701 1.311979327744133 1.3158732034580873 1.3158732034580873 1.2661389653774564 1.3216692541163588 1.319810868072101 1.3158732034586358 1.302306772493993 1.3473212359085238 1.3158732034580873 1.3158732034580873 1.3402398100020079 1.3158732034209737 1.3158732034580873 1.2556506491281552 1.3057137345492726 1.2517272627364207 1.3179370671140278 1.2700926118152613 1.3158732040163101 1.2553590595638187 1.314457947757171 1.3211620382331848 1.3158732034580654 1.3155629847723471 1.3158732034580873 1.3147277632395553 1.3158732034580873 1.3158732034580873 1.3142901349237095 1.315873203470679 1.3550445179005457 1.286070773666687 1.3162694133948412 1.2634455116787688 1.301196876966729 1.3158732034580873 1.3158732034580873 1.3158732034580873 1.3158732034580873 1.3156179489061972 1.2570828421853022 1.3158128191159415 1.3158567314979555 1.3158732034581042 1.2471038659519735 1.2507053025852126 1.315873203458066 1.2553018120890311 1.3396600639673315 1.3148299126829712 1.2549598039622818 1.3280383622759375 1.4174874700756936 1.3158732034580873 1.2532670431226873 1.3138028769670775 1.3158732034580873 1.3674754914607 1.3158732034580873 1.3158732034580873 1.3544411551653053 1.3158732034580873 1.3694409102100364 1.3160589048017577 1.3031739688575665 1.3254496662208715 1.3158732034580873 1.4276058524544912 1.3158732034580563 1.3158732034580873 1.354010691496991 1.3456954652553659 1.2656002373302215 1.3158732034580873 1.3158732034578784 1.2517812494765876 1.3020176032847175 1.3158732034580796 1.2781878790152312 1.3158486302138128 1.3158732030281284 1.3567035202698605 1.3158732034580873 1.3158732034580873 1.3158732034580873 1.3158732034580873 1.3047057396308273 1.310974006942806 1.4261906466753658 1.3158732034577665 1.3026211036465725 1.3158732034235212 1.249482599618361 1.3158706024587687 1.3022822559012237 1.3254051040815387 1.3066065585537479 1.3142936355143873 1.3158732034580873 1.3158597096251103 1.3160585945367134 1.2991324323374922 1.3158732034580873 1.364302836546424 1.3118927400920972 1.2583842414194186 1.3158729562076468 1.3158732034580873 1.3158732034580873 1.3633176176295652 1.3075704396667902 1.3158732034580867 1.315873203454934 1.3631085706677386 1.3997391136220654 1.3158732034580873 1.3758813403858958 1.3158732034579375 1.31068923414623 1.3082922936011503 1.3158732034580873 1.3158732034580873 1.3412525656702217 1.2587154463982326 1.314917968748638 1.3158732034580873 1.2583305061399783 1.3158732034581473 1.3156276098441528 1.3158732034580862 1.3158732034580873 1.3013600617351166 1.3158732034580873 1.3158732034580873 1.3133499144541554 1.3158732034580873 1.3188261482804549 1.3158732034580873 1.338362821113349 1.3157804291098427 1.3158732034580873 1.344788866285909 1.3158732034580873 1.2996529699466837 1.3158732034580873 1.3122352302106 1.3158732034580893 1.318934479046355 1.3192153698384044 1.3174672164746595 1.3158732034915592 1.3158732034580873 1.3248474476774732 1.2669189791859878 1.315873203458081 1.2642449279699828 1.315873203457342 1.3158732034859544 1.3158732034580873 1.3395556819347745 1.3089447358865205 1.2681526083265753 1.3158732034459923 1.3158732034580873 1.3584978800095429 1.3158732034614185 1.2719261144910745 1.2700478355129692 1.3153947512729138 1.3276654237049343 1.3158732004127647 1.3158732034580873 1.3155463007075348 1.335932470323382 1.3158732034580873 1.2518396400835734 1.3158732034580873 1.315789743946555 1.315873203458071 1.2621462032354887 1.3158732034580873 1.3158732034580873 1.3158732034580873 1.3150302868975734 1.3793135279699862 1.2652235609310953 1.3158732034580873 1.313320276357869 1.3158732034580873 1.2775757843071338 1.2695781510130961 1.2786529914613562 1.3158732034580873 1.3158732034580873 1.3158732034580873 1.3158732034580873 1.3158708182029162 1.3156999325963703 1.3158443250090726 1.3158732034580873 1.3158729959438018 1.3158732034585727 1.3283158673000068 1.3009231428572807 1.3574683726918926 1.3192858991857421 1.3158732034580873 1.2632130404073982 1.3158732034580873 1.3158732034580873 1.3158732034580873 1.3158732034580873 1.3214810807978348 1.3158732066737104 1.3158732034580873 1.3158732034580873 1.315873203458122 1.3158732034604252 1.3182310443831045 1.348357532207099 1.3157776809964672 1.3026465046505786 1.3106238323587904 1.3158732034580873 1.3158732034580873 1.2532137458753603 1.3158521175548614 1.3158732034447167 1.3220629126140355 1.3158732034580873 1.3158732034580873 1.3024746695480682 1.3034463173328235 1.3136825802438183 1.3158732034580765 1.313720141018905 1.3158732034580873 1.3158732034580873 1.3158732034580873 1.3158732034580873 1.3158732070868253 1.356619246745282 1.3158732034580873 1.3158732034580873 1.3158732034580873 1.3798798643476584 1.3158732034580873 1.3158716182892152 1.315873203422875 1.3158726363097926 1.3548622716365506 1.304438602267162 1.3650895587954273 1.3091731586584272 1.3746176498280664 1.3158732034580873 1.3158732034580873 1.3158732034577716 1.3158732034580873 1.3158732034580873 1.2825481966736052 1.3158732034580873 1.280720067929162 1.3158732034580873 1.3708990555728202 1.3158732034580873 1.3158732034580873 1.2528897199773283 1.316650325270468 1.315583527180487 1.3158732052767081 1.3158732034580745 1.3158732034580873 1.3132089788184604 1.297495242952456 1.3158732034580873 1.3690550846838931 1.3158732036849723 1.2558604240338895 1.3158732034580873 1.282129688945119 1.3638517051799905 1.3437758371944564 1.3158732034580873 1.3382029405944667 1.3015276696253206 1.3158732034580873 1.3586177786666462 1.3543191069857392 1.315870348413725 1.3710746756555572 1.3158732034580873 1.3158732034580873 1.2813880542423826 1.3158732034580873 1.3158732034580873 1.3278739823857966 1.3156938847977542 1.2573678973166118 1.3173303880222946 1.2488746737164256 1.330357220432134 1.3724820953466312 1.3158732034580873 1.315873201177577 1.3158732034580873 1.3648790631863867 1.27677088923941 1.343995965436292 1.3896066468642965 1.3158732034580873 1.3158732034580873 1.3484622716471828 1.3125713453938737 1.263589356123496 1.3833939728804354 1.31052958536948 1.3029643136516909 1.3011413612689575 1.315872890377014 1.3158732034580873 1.3190213262834118 1.31587317588108 1.2520152628353542 1.3158732034580873 1.3158732034580873 1.3158732034580873 1.3134640922890808 1.3158732034580873 1.3158732034580918 1.3158732034580873 1.3158732035518723 1.3158732034580873 1.3158732034580873 1.3158732034580873 1.3634158230279778 1.3158732034580873 1.3160272513118028 1.3158732034580873 1.3158732034601153 1.2654092274007493 1.3158732034580873 1.325734504323574 1.2506282616790758 1.315972614887469 1.3158732034580873 1.3069216791822806 1.299525634254429 1.3158732034580873 1.3656499167542338 1.3158732034580873 1.2474239112919503 1.3157867578869278 1.3738132311371174 1.3158732034580873 1.3158732034580873 1.3158732034580873 1.3158732034580873 1.3158732034580916 1.2719663391941864 1.3751211718021072 1.3158732034580873 1.3158732034580873 1.32125395614555 1.3158732034580873 1.3339325654401346 1.265683021772411 1.2518639920713754 1.3158732034580873 1.3158732034580873 1.3155393186290196 1.3213800139813985 1.3158732034580873 1.3158079717279 1.3155884559422446 1.3158732034580873 1.3180067544647982 1.3158732034580873 1.3158732034580873 1.3135731767018262 1.3158732034580873 1.3158732034580873 1.3158732034580873 1.3158732034580873 1.3158732034580873 1.3158732034580873 1.3158732034580873 1.3149858804585106 1.3158732034580873 1.3158732034581988 1.3158732034580642 1.2861415471680204 1.3158732034580873 1.3158732034580873 1.2716609778679682 1.32772177636237 1.3158732034580873 1.3074862185772227 1.3158732009914291 1.3158732034580873 1.268125695545031 1.3158732034580873 1.3158732034580873 1.3158732034580873 1.2681917220165 1.315775959574497 1.3158732034855636 1.2713979652568417 1.3158732032489975 1.3159568974128475 1.3158732034580873 1.3158732034580873 1.315866794894684 1.3158732034580873 1.3158732034580873 1.3096749248316637 1.3158732034580873 1.3158732034580873 1.3158732034580873 1.3158732034580873 1.2998467336465898 1.3168905713386403 1.3158732034580873 1.3158732034580873 1.3158732034580873 1.414342745335193 1.3314742929382133 1.3158732034580873 1.3158732034581884 1.3014159484248853 1.3158732034580873 1.3158732034580873 1.2726937316633873 1.3145508650633657 1.3158732034580873 1.3158732034580873 1.315873203458075 1.3309750805077583 1.277560148623749 1.3158732034662208 1.3158732034580873 1.3158732034580873 1.3158732034221323 1.3158732034580873 1.2846951659100427 1.3158732034953833 1.307563070645791 1.3158732034580873 1.3158732034580873 1.2931867028453397 1.315873038650401 1.3158732034580873 1.3158732034580873 1.3120058508495547 1.3173512707779442 1.3043783213340974 1.30236725366162 1.38952348169916 1.2511364515635077 1.2625298924189678 1.3158732034400165 1.3158732034580873 1.3158732034580873 1.3158732034580873 1.3063453835145766 1.3630776962618707 1.315873203458608 1.3158732034580873 1.3158732034580873 1.3193724322241305 1.2491775096075264 1.3157173497870087 1.3138175135407266 1.3158732034580873 1.3158732034580873 1.3158732034586529 1.3158732034580873 1.3041086125183972 1.3158732032775085 1.3158732034580873 1.3164322504496146 1.3383704870638307 1.3158732034580873 1.3158732034580873 1.3158732034580873 1.3127272680340463 1.3158732034580873 1.315873203458087 1.3158732034580873 1.2485115000955709 1.3570323469408285 1.3158732034580873 1.3265495482074083 1.3158732034580873 1.3158732034580873 1.2996775681656267 1.3158732034580796 1.315875610795697 1.3158732034580873 1.3153748598670723 1.2897428878398185 1.3208612953936023 1.3345207831143684 1.3158732034580873 1.3158729244073428 1.3028914722998657 1.3155468985512915 1.3158732034580873 1.315913979868134 1.315890388331526 1.3622546805851394 1.3158732034580873 1.3158732034580873 1.3158732034580873 1.3158732034580873 1.3782925619680764 1.3067832389229652 1.3158726160078462 1.3158732031756548 1.3396456637475807 1.3162601976142119 1.3158732034580873 1.3158732034580873 1.297765849139491 1.3158732034607874 1.3151224275336963 1.3158732034528124 1.2644021635982636 1.3158732034580873 1.3158732034580873 1.3158732034580873 1.320489778841881 1.3158732034580873 1.3158732034580873 1.3158732034580862 1.3158732034580873 1.3295552810269367 1.3129375773849794 1.3259465461841775 1.3158732034580873 1.3158732034580873 1.3158732034580873 1.3158732034580873 1.3743446580145522 1.3734242695466021 1.3158732034580873 1.2862831892995108 1.2802688510529612 1.3120369884235197 1.3158732034580873 1.329020379487524 1.3726470043692411 1.315873203458087 1.3102047250192483 1.3176001285077088 1.3158731085723612 1.3158732034577885 1.3158732034580873 1.2805287891539545 1.3719130574718068 1.3158732034580873 1.3158732034580873 1.3157480806519228 1.3158732034580873 1.254931035064086 1.3158732034580873 1.3158732034580873 1.3158732034580873 1.3243158683042537 1.3478133493682658 1.317362179020348 1.2807496290258444 1.315873203451689 1.3158730015734603 1.3158732034580873 1.3158732034580873 1.3158732034580873 1.3175137778764274 1.3158732054257076 1.3158732034580873 1.3412162285683382 1.3158732034580873 1.360237197017982 1.33085900334458 1.3237439042456571 1.3950412018586278 1.3158732034580873 1.3070540877887806 1.3034472712622074 1.3543102143552193 1.3158732034580873 1.3158732034580873 1.3158728990160193 1.3158732034580873 1.3158732034580873 1.301088052874948 1.405161971505507 1.3110808794290167 1.315873203458156 1.2533336994873385 1.3158732034580873 1.3319969736499002 1.3778906637084714 1.3158201176875948 1.3158732034580873 1.2904666157224591 1.3080354655823732 1.3158732034580873 1.3158732034580873 1.3158732034580873 1.260764947534621 1.3158732034580873 1.3158732034577683 1.3158732034580887 1.3224093261832663 1.315552888175281 1.3086214195235963 1.322159828905996 1.3163733552957593 1.3158732034580873 1.3158732034580873 1.3365843222481473 1.3158732034580154 1.368627318842836 1.3503170683833325 1.3893187758628218 1.3158732037056085 1.3690163216018254 1.3512546800834118 1.314269007263779 1.3158732034580873 1.297679726036254 1.2790504340962912 1.3649407868227088 1.356805295917071 1.3159154698557705 1.3158732034608736 1.3158732034580873 1.3158732034580873 1.3158732034580873 1.3158586208966037 1.3158732034580873 1.320263220281671 1.3278387962211082 1.3158732034580873 1.3158732034576166 1.3158732034599254 1.3522309573749858 1.315873203452289 1.3008723163123355 1.3158732034580873 1.3168463893054796 1.3035865584673125 1.3154586442680862 1.3137605519362845 1.315876920304022 1.3158732034580873 1.3158732034580873 1.2705637387337207 1.3158732034580873 1.3158732034580873 1.3158732034580873 1.3158732034580873 1.3185904828831223 1.3158702992610638 1.3128220102722006 1.3622224254367623 1.3133204756583914 1.3158073753967696 1.3158732034580873 1.315873203592154 1.3581693897925495 1.2519848483043874 1.3158732034580873 1.3158732034580873 1.315856117348901 1.3599279782812537 1.3158732034580873 1.337887091307673 1.3158732034580873 1.311341514742428 1.3158732034580873 1.3158732034580873 1.3158732034580873 1.3158461164100386 1.2870709143145032 1.3158732034580873 1.3158732034580873 1.3158732034580873 1.3158732034580873 1.3158732034580873 1.3158732034580873 1.3158732034580873 1.3158732034580873 1.3158732034580873 1.3158732034580873 1.3158732034580873 1.3158732034580873 1.3670901482895321 1.3158732034285487 1.3159161192394422 1.3158732034580873 1.3564480107920258 1.3154689640496977 1.3579162006359615 1.318484133965799 1.362172832859785 1.3651168878547058 1.368494781726944 1.3248969317739876 1.3347359000297223 1.3791480775209775 1.4045279220833924 1.3622450564384967 1.319189842009529 1.3260407365994606 1.3779733801467846 1.3361443538799322 1.3158732034580873 1.3171679296582695 1.3038931697293612 1.2560588949311007 1.3158732035054752 1.3158732034580873 1.2642497000435176 1.3158732034580873 1.3158732034580873 1.3158732034580873 1.2564146172282373 1.3158732037257959 1.300035251651705 1.387141695782099 1.3158732034580873 1.2467885055828898 1.304124189466741 1.3158732034579057 1.3158732034580873 1.3158732035035017 1.4045575787706166 1.3158732034580873 1.3967635213738168 1.399575076914688 1.3596864264957362 1.3150286496906063 1.3158732034580873 1.3158732034580873 1.2573654292232899 1.3158732034580873 1.3164988115816014 1.3158732059010614 1.3158732034580873 1.3158732034580873 1